AAD_Csat,AAD_hfg,AAD_psat,N_Csat,N_hfg,N_psat,Tc_K,c0,c1,c2,formula,inchi,inchikey,name,pc_MPa
,,0.971233084,0,0,25,498.4,0.642808562,0.998771036,1.002144221,C_{5}H_{8},"InChI=1S/C5H8/c1-3-5-4-2/h1H,4-5H2,2H3",IBXNCJKFFQIKKY-UHFFFAOYSA-N,1-pentyne,4.115789745
,,1.073347201,0,0,25,450,1.17347588,0.805397866,0.774232958,C_{3}H_{4}F_{4}O,"InChI=1S/C3H4F4O/c1-8-3(6,7)2(4)5/h2H,1H3",YQQHEHMVPLLOKE-UHFFFAOYSA-N,"2-(methoxy)-1,1,2,2-tetrafluoroethane",2.980704948
,,1.07377383,0,0,25,771,0.942261487,0.8916726,1.991483939,C_{17}H_{24}O_{4},"InChI=1S/C17H24O4/c1-4-6-8-16(18)20-14-10-13(3)11-15(12-14)21-17(19)9-7-5-2/h10-12H,4-9H2,1-3H3",QTQUQPRPHCMOMZ-UHFFFAOYSA-N,3-methyl-5-(pentanoyloxy)phenyl pentanoate,1.527956388
,,1.204338814,0,0,25,695,1.337696725,0.889238868,0.674240795,C_{11}H_{14},"InChI=1S/C11H14/c1-5-11-9(3)6-8(2)7-10(11)4/h5-7H,1H2,2-4H3",PDELBHCVXBSVPJ-UHFFFAOYSA-N,"2,4,6-trimethylstyrene",2.761838836
,,1.205017206,0,0,25,704,1.254131922,0.88551097,0.698943729,C_{11}H_{16}O,"InChI=1S/C11H16O/c1-11(2,3)12-9-10-7-5-4-6-8-10/h4-8H,9H2,1-3H3",TZGIRWVSWPFWBP-UHFFFAOYSA-N,"ether, benzyl tert-butyl",2.578406927
,,1.439029038,0,0,25,626,1.140744241,0.99997754,0.724283202,C_{7}H_{4}ClF_{3},"InChI=1S/C7H4ClF3/c8-6-4-2-1-3-5(6)7(9,10)11/h1-4H",DGRVQOKCSKDWIH-UHFFFAOYSA-N,"benzene, 1-chloro-2-(trifluoromethyl)-",2.863475554
,,1.513041737,0,0,25,785,0,0.275460383,0.660514475,C_{6}H_{4}FNO_{2},InChI=1S/C6H4FNO2/c7-5-2-1-3-6(4-5)8(9)10/h1-4H,WMASLRCNNKMRFP-UHFFFAOYSA-N,3-fluoronitrobenzene,4.818002793
,0.358349448,1.561299785,0,6,25,550,0.205844009,0.828909865,2.92499031,C_{5}H_{8}ClF_{3}O,"InChI=1S/C5H8ClF3O/c1-2-3-10-5(8,9)4(6)7/h4H,2-3H2,1H3",VAQBXLDLDMFYQU-UHFFFAOYSA-N,"1-(2-chloro-1,1,2-trifluoroethoxy)propane",2.883960831
,,1.589416743,0,0,25,487.6,0.291417013,0.827017925,1.74918911,C_{5}H_{8},"InChI=1S/C5H8/c1-3-5-4-2/h3-5H,1H2,2H3",PMJHHCWVYXUKFD-UHFFFAOYSA-N,"1,3-pentadiene",3.963616869
,,1.625077279,0,0,25,656,1.047204952,0.999997347,0.940743891,C_{10}H_{14},"InChI=1S/C10H14/c1-4-10-6-8(2)5-9(3)7-10/h5-7H,4H2,1-3H3",LMAUULKNZLEMGN-UHFFFAOYSA-N,"1-ethyl-3,5-dimethylbenzene",2.834175971
,,1.881347704,0,0,25,751,2.559050708,0.895676079,0.456228448,C_{15}H_{24}O_{2},"InChI=1S/C15H24O2/c1-4-6-8-16-14-10-13(3)11-15(12-14)17-9-7-5-2/h10-12H,4-9H2,1-3H3",GRDRUFJNSCOGCL-UHFFFAOYSA-N,"1,3-dibutoxy-5-methylbenzene",1.749205555
0.642828129,0.225260144,2.023208855,8,6,25,517,1.176376779,0.999979179,0.571435408,C_{3}H_{7}Br,"InChI=1S/C3H7Br/c1-3(2)4/h3H,1-2H3",NAMYKGVDVNBCFQ-UHFFFAOYSA-N,2-bromopropane,4.048139119
,,2.319125788,0,0,25,553.1,0.67369868,0.89893822,1.300851707,C_{5}H_{8}O_{2},"InChI=1S/C5H8O2/c1-4(2)7-5(3)6/h1H2,2-3H3",HETCEOQFVDFGSY-UHFFFAOYSA-N,1-methylvinyl ethanoate,3.898037579
,,2.327931647,0,0,25,605,1.212593754,0.995767517,0.804914531,C_{10}H_{18},"InChI=1S/C10H18/c1-5-10(4)8-6-7-9(2)3/h5,7,10H,1,6,8H2,2-4H3",FUDNBFMOXDUIIE-UHFFFAOYSA-N,"3,7-dimethyl-1,6-octadiene",2.177058823
,,2.433780482,0,0,25,490,0.110754619,0.523251968,1.093788901,C_{3}H_{9}N,"InChI=1S/C3H9N/c1-3-4-2/h4H,3H2,1-2H3",LIWAQLJGPBVORC-UHFFFAOYSA-N,N-methylethylamine,5.231640409
,0.170841562,2.471002682,0,1,25,629,2.013424263,0.977287487,0.362042893,C_{7}H_{14}O_{2},"InChI=1S/C7H14O2/c1-8-7(9-2)5-3-4-6-7/h3-6H2,1-2H3",AGWFDZMDKNQQHG-UHFFFAOYSA-N,"1,1-dimethoxycyclopentane",3.924101383
,0.174493182,2.478681854,0,2,25,731,0.497394569,0.848091044,1.708497434,C_{6}H_{10}O_{2},"InChI=1S/C6H10O2/c1-2-5-3-4-6(7)8-5/h5H,2-4H2,1H3",JBFHTYHTHYHCDJ-UHFFFAOYSA-N,"2(3H)-furanone, 5-ethyldihydro-",3.965509584
0.11882724,1.473898594,2.637899968,12,1,25,489.2,0.654090595,0.816079333,0.872858863,C_{4}H_{6},InChI=1S/C4H6/c1-3-4-2/h1-2H3,XNMQEEKYCVKGBD-UHFFFAOYSA-N,2-butyne,6.110226285
,,2.918226575,0,0,25,700,0.905104063,0.937721038,1.476714236,C_{3}H_{5}NO,"InChI=1S/C3H5NO/c4-2-1-3-5/h5H,1,3H2",WSGYTJNNHPZFKR-UHFFFAOYSA-N,3-hydroxypropanenitrile,3.976862716
,,3.118449967,0,0,25,522,0.590861483,0.923489273,1.671215982,Cl_{2}O_{2}S,"InChI=1S/Cl2O2S/c1-5(2,3)4",YBBRCQOCSYXUOC-UHFFFAOYSA-N,sulfuryl chloride,5.831965653
,,3.129898632,0,0,25,590,0.54700435,0.860832622,2.384430647,C_{7}H_{14}O_{3},"InChI=1S/C7H14O3/c1-3-5-9-7(8)10-6-4-2/h3-6H2,1-2H3",VUPKGFBOKBGHFZ-UHFFFAOYSA-N,"carbonic acid, dipropyl ester",2.91221755
,,3.295368759,0,0,25,747,1.476835672,0.999130451,0.727431967,C_{9}H_{12}O,"InChI=1S/C9H12O/c1-6-4-9(10)5-7(2)8(6)3/h4-5,10H,1-3H3",FDQQNNZKEJIHMS-UHFFFAOYSA-N,"3,4,5-trimethylphenol",3.486116327
0.141030158,0.424978258,3.544864136,45,3,25,599.7,0.759575483,0.823414987,0.96495639,C_{5}H_{12}S,"InChI=1S/C5H12S/c1-2-3-4-5-6/h6H,2-5H2,1H3",ZRKMQKLGEQPLNS-UHFFFAOYSA-N,1-pentanethiol,3.517942522
,0.020942815,3.885037565,0,3,25,638,1.106816243,0.999913384,0.810539371,C_{4}H_{8}Cl_{2},InChI=1S/C4H8Cl2/c5-3-1-2-4-6/h1-4H2,KJDRSWPQXHESDQ-UHFFFAOYSA-N,"1,4-dichlorobutane",3.890464582
,,3.939122572,0,0,25,836,2.121772083,0.799285362,0.484777421,C_{6}H_{6}O_{2},"InChI=1S/C6H6O2/c7-5-2-1-3-6(8)4-5/h1-4,7-8H",GHMLBKRAJCXXBS-UHFFFAOYSA-N,"1,3-benzenediol",6.156417287
,,3.961587394,0,0,25,473.8,0.796288068,0.999960377,0.958194222,C_{5}H_{10},"InChI=1S/C5H10/c1-3-5-4-2/h3,5H,4H2,1-2H3",QMMOXUPEWRXHJS-UHFFFAOYSA-N,2-pentene,3.590614698
,,4.396328817,0,0,25,674.1625488,1.360908574,0.999770718,0.821372746,C_{10}H_{20}O,"InChI=1S/C10H20O/c1-2-3-4-5-6-7-8-9-10-11/h10H,2-9H2,1H3",KSMVZQYAVGTKIV-UHFFFAOYSA-N,decanal,2.601058337
,,5.592927275,0,0,25,666,0.905161001,0.999842466,0.974822525,C_{7}H_{3}Cl_{2}F_{3},"InChI=1S/C7H3Cl2F3/c8-5-2-1-4(3-6(5)9)7(10,11)12/h1-3H",XILPLWOGHPSJBK-UHFFFAOYSA-N,"1,2-dichloro-4-(trifluoromethyl)benzene",3.29289771
1.628002602,13.70579903,5.641028714,23,1,25,974,1.342568176,0.99999228,0.654391355,C_{16}H_{10},InChI=1S/C16H10/c1-3-11-7-9-13-5-2-6-14-10-8-12(4-1)15(11)16(13)14/h1-10H,BBEAQIROQSPTKN-UHFFFAOYSA-N,pyrene,2.982075078
,2.441089102,5.996009213,0,1,25,611.426824,0,0.145055145,0.923526879,C_{8}H_{16}O_{2},"InChI=1S/C8H16O2/c1-4-8(9)10-6-5-7(2)3/h7H,4-6H2,1-3H3",XAOGXQMKWQFZEM-UHFFFAOYSA-N,3-methylbutyl propanoate,1.975961473
0.739055508,0.10621754,6.554003012,68,3,25,592.1,0.749028038,0.840506935,0.949967449,C_{7}H_{7}F,"InChI=1S/C7H7F/c1-6-2-4-7(8)5-3-6/h2-5H,1H3",WRWPPGUCZBJXKX-UHFFFAOYSA-N,1-fluoro-4-methylbenzene,3.85631066
,,6.737648335,0,0,25,724,0.896297865,0.743212902,1.094047677,C_{9}H_{12}O,"InChI=1S/C9H12O/c1-6-4-8(3)9(10)5-7(6)2/h4-5,10H,1-3H3",VXSCPERJHPWROZ-UHFFFAOYSA-N,"1-hydroxy-2,4,5-trimethylbenzene",3.379010922
,,7.865766828,0,0,25,693,0.636415962,0.92352094,1.670701312,C_{8}H_{9}Cl,"InChI=1S/C8H9Cl/c1-7(9)8-5-3-2-4-6-8/h2-7H,1H3",GTLWADFFABIGAE-UHFFFAOYSA-N,(1-chloroethyl)benzene,4.761924161
,,8.194178486,0,0,25,878.3,1.806942973,0.908540843,1.13737011,C_{35}H_{72},"InChI=1S/C35H72/c1-3-5-7-9-11-13-15-17-19-21-23-25-27-29-31-33-35-34-32-30-28-26-24-22-20-18-16-14-12-10-8-6-4-2/h3-35H2,1-2H3",VHQQPFLOGSTQPC-UHFFFAOYSA-N,pentatriacontane,0.596300257
,,8.900725812,0,0,25,743.9,0.73623819,0.903767561,1.861652156,C_{14}H_{29}Cl,"InChI=1S/C14H29Cl/c1-2-3-4-5-6-7-8-9-10-11-12-13-14-15/h2-14H2,1H3",RNHWYOLIEJIAMV-UHFFFAOYSA-N,1-chlorotetradecane,1.614367985
0.135643359,,10.60555569,9,0,25,790,0.662639101,0.82946286,1.565261295,C_{14}H_{14},"InChI=1S/C14H14/c1-11-5-3-7-13(9-11)14-8-4-6-12(2)10-14/h3-10H,1-2H3",GVEDOIATHPCYGS-UHFFFAOYSA-N,"3,3'-dimethylbiphenyl",2.808075652
,,12.8831398,0,0,25,896,0.733357105,0.905412944,1.844781239,C_{16}H_{10},InChI=1S/C16H10/c1-2-8-13-12(7-1)14-9-3-5-11-6-4-10-15(13)16(11)14/h1-10H,GVEPBJHOBDJJJI-UHFFFAOYSA-N,fluoranthene,3.988247902
,0.320834935,12.99728295,0,2,25,723,0.2603398,0.735604142,2.122088501,C_{8}H_{16}Cl_{2},InChI=1S/C8H16Cl2/c9-7-5-3-1-2-4-6-8-10/h1-8H2,WXYMNDFVLNUAIA-UHFFFAOYSA-N,"1,8-dichlorooctane",2.43850073
,,13.6748953,0,0,25,676.5,1.614839975,0.99970112,0.874822374,C_{12}H_{24}O,"InChI=1S/C12H24O/c1-2-3-4-5-6-7-8-9-10-11-12-13/h12H,2-11H2,1H3",HFJRKMMYBMWEAD-UHFFFAOYSA-N,dodecanal,1.896951523
,,15.91718457,0,0,25,719,2.682467839,0.628175487,0.552437033,C_{8}H_{18}O_{2},"InChI=1S/C8H18O2/c1-2-3-4-5-6-8(10)7-9/h8-10H,2-7H2,1H3",AEIJTFQOBWATKX-UHFFFAOYSA-N,"1,2-octanediol",2.6965049
,9.506171461,17.72149479,0,1,25,619,0.743407725,0.923247949,1.67338924,C_{9}H_{16}O_{2},"InChI=1S/C9H16O2/c1-7(2)5-9(10)11-6-8(3)4/h5,8H,6H2,1-4H3",OORIYKITSHAVJG-UHFFFAOYSA-N,2-methylpropyl 3-methyl-2-butenoate,2.342556575
1.194999267,14.43470095,31.83613226,38,1,25,889.5502376,2.054499834,0.622374194,0.413411456,C_{10}H_{8}O,"InChI=1S/C10H8O/c11-10-6-5-8-3-1-2-4-9(8)7-10/h1-7,11H",JWAZRIHNYRIHIV-UHFFFAOYSA-N,2-hydroxynaphthalene,6.691427005
,,0.123914275,0,0,24,698,0.455597583,0.811049991,1.607343846,C_{7}H_{8}S,"InChI=1S/C7H8S/c8-6-7-4-2-1-3-5-7/h1-5,8H,6H2",UENWRTRMUIOCKN-UHFFFAOYSA-N,(mercaptomethyl)benzene,3.507671176
,,0.124024748,0,0,24,729,1.450706902,0.728996997,0.710549027,C_{11}H_{16}O,"InChI=1S/C11H16O/c1-3-6-9(2)10-7-4-5-8-11(10)12/h4-5,7-9,12H,3,6H2,1-2H3",ROMXEVFSCNLHAB-UHFFFAOYSA-N,2-(2-pentyl)phenol,2.595367603
,,0.195765412,0,0,24,545.4,0.646761937,0.817390739,1.245630201,C_{5}H_{8}O_{2},"InChI=1S/C5H8O2/c1-3-5(6)7-4-2/h4H,2-3H2,1H3",UIWXSTHGICQLQT-UHFFFAOYSA-N,vinyl propanoate,3.63248853
,,0.224263126,0,0,24,598,0.159069442,0.840641344,2.706037822,C_{6}H_{13}N,"InChI=1S/C6H13N/c1-6-4-2-3-5-7-6/h6-7H,2-5H2,1H3",NNWUEBIEOFQMSS-UHFFFAOYSA-N,2-methylpiperidine,3.9459656
,,0.280767653,0,0,24,507.4,0.67259803,0.91325969,1.209395649,C_{6}H_{12},"InChI=1S/C6H12/c1-3-5-6-4-2/h5-6H,3-4H2,1-2H3/b6-5+",ZQDPJFUHLCOCRG-AATRIKPKSA-N,(E)-3-hexene,3.319978701
,,0.382158908,0,0,24,708,0.469628629,0.816543909,1.625781178,C_{6}H_{4}FNO_{2},InChI=1S/C6H4FNO2/c7-5-1-3-6(4-2-5)8(9)10/h1-4H,WFQDTOYDVUWQMS-UHFFFAOYSA-N,1-fluoro-4-nitrobenzene,3.8216893
,,0.575837893,0,0,24,490,0.746354055,0.976847794,1.102065162,C_{6}H_{12},"InChI=1S/C6H12/c1-4-6(3)5-2/h4,6H,1,5H2,2-3H3",LDTAOIUHUHHCMU-UHFFFAOYSA-N,3-methyl-1-pentene,3.256694638
,,0.670662865,0,0,24,868.5820925,0.927256228,0.891269222,1.164622471,C_{13}H_{9}Br,"InChI=1S/C13H9Br/c14-11-5-6-13-10(8-11)7-9-3-1-2-4-12(9)13/h1-6,8H,7H2",FXSCJZNMWILAJO-UHFFFAOYSA-N,2-bromofluorene,2.01270515
,,0.690069391,0,0,24,730,2.271896013,0.708764589,0.360722938,C_{11}H_{16}O_{2},"InChI=1S/C11H16O2/c1-4-11(12-2,13-3)10-8-6-5-7-9-10/h5-9H,4H2,1-3H3",QQRDWBBZZJLZBQ-UHFFFAOYSA-N,"1,1dimethoxypropylbenzene",2.710032233
,,0.800831744,0,0,24,505.7,1.0769225,0.965633099,0.705470754,C_{6}H_{12},"InChI=1S/C6H12/c1-4-6(3)5-2/h3-5H2,1-2H3",RYKZRKKEYSRDNF-UHFFFAOYSA-N,2-ethyl-1-butene,3.123420292
0.287383083,,0.806853113,12,0,24,556.9,0.209499809,0.852034852,2.516965062,C_{6}H_{4}F_{2},InChI=1S/C6H4F2/c7-5-1-2-6(8)4-3-5/h1-4H,QUGUFLJIAFISSW-UHFFFAOYSA-N,"1,4-difluorobenzene",4.268437822
,,0.824233686,0,0,24,619,0.41176009,0.861502349,1.887069174,C_{4}H_{6}N_{2},"InChI=1S/C4H6N2/c1-6-4-2-3-5-6/h2-4H,1H3",UQFQONCQIQEYPJ-UHFFFAOYSA-N,1-methyl-1H-pyrazole,5.863538392
,,0.824432508,0,0,24,533,0.264550414,0.855728298,2.459911097,C_{2}H_{5}N,"InChI=1S/C2H5N/c1-2-3-1/h3H,1-2H2",NOWKCMXCCJGMRR-UHFFFAOYSA-N,azacyclopropane,9.649986996
,,1.029015949,0,0,24,711,1.393856153,0.998546044,0.83591942,C_{14}H_{28},"InChI=1S/C14H28/c1-2-3-4-5-6-8-11-14-12-9-7-10-13-14/h14H,2-13H2,1H3",FBXWCEKQCVOOLT-UHFFFAOYSA-N,octylcyclohexane,1.584207497
,,1.066306692,0,0,24,545.6708318,1.187648271,0.950789047,1.337372714,C_{5}HF_{9}O_{2},"InChI=1S/C5HF9O2/c6-2(7,1(15)16)3(8,9)4(10,11)5(12,13)14/h(H,15,16)",CXZGQIAOTKWCDB-UHFFFAOYSA-N,perfluoropentanoic acid,2.244503029
0.367254049,,1.237337961,11,0,24,379.52528,0.496188456,0.830326475,1.222664696,C_{2}ClF_{3},InChI=1S/C2ClF3/c3-1(4)2(5)6,UUAGAQFQZIEFAH-UHFFFAOYSA-N,"1-chloro-1,2,2-trifluroethene",4.092246809
,,1.460011168,0,0,24,854,1.880254615,0.76392224,0.43981098,C_{10}H_{18}N_{2},"InChI=1S/C10H18N2/c1-2-3-4-5-6-8-12-9-7-11-10-12/h7,9-10H,2-6,8H2,1H3",NQQMTFKCFYHSBJ-UHFFFAOYSA-N,1-heptylimidazole,3.292173628
,,1.469200282,0,0,24,573.861,1.261633315,0.6537179,0.70009524,C_{7}H_{20}Si_{2},"InChI=1S/C7H20Si2/c1-8(2,3)7-9(4,5)6/h7H2,1-6H3",GYIODRUWWNNGPI-UHFFFAOYSA-N,bis(trimethylsilyl)methane,1.989079496
,,1.637091415,0,0,24,558,0,0.270161508,0.89511966,C_{5}H_{10}O_{2},"InChI=1S/C5H10O2/c1-5(2)6-3-4-7-5/h3-4H2,1-2H3",SIJBDWPVNAYVGY-UHFFFAOYSA-N,"2,2-dimethyl-1,3-dioxolane",4.220209839
,,1.880226612,0,0,24,533.2,1.198893751,0.954376259,0.594321981,C_{7}H_{14},"InChI=1S/C7H14/c1-5-6-7(2,3)4/h5-6H,1-4H3/b6-5-",BIDIHFPLDRSAMB-WAYWQWQTSA-N,"(Z)-4,4-dimethyl-2-pentene",3.212099976
,,1.953751249,0,0,24,866,0.433542391,0.349995562,0.892104684,C_{12}H_{22}N_{2},"InChI=1S/C12H22N2/c1-2-3-4-5-6-7-8-10-14-11-9-13-12-14/h9,11-12H,2-8,10H2,1H3",KCWDRMKPLNYFEA-UHFFFAOYSA-N,1-nonylimidazole,2.766325791
,,1.961093811,0,0,24,845,0.97779813,0.316384743,0.69412664,C_{11}H_{20}N_{2},"InChI=1S/C11H20N2/c1-3-4-5-6-7-9-13-10-8-12-11(13)2/h8,10H,3-7,9H2,1-2H3",MKUQCQQAMZMTHI-UHFFFAOYSA-N,1-heptyl-2-methyl-1H-imidazole,2.956923041
,,2.20017266,0,0,24,831,0.171292435,0.000589623,0.596122722,C_{9}H_{16}N_{2},"InChI=1S/C9H16N2/c1-3-4-5-7-11-8-6-10-9(11)2/h6,8H,3-5,7H2,1-2H3",WYGYPEMNIUDFBC-UHFFFAOYSA-N,2-methyl-1-pentyl-1H-imidazole,3.653612244
,,2.388492151,0,0,24,708,0.680576636,0.918777205,1.714657437,C_{6}H_{5}NO_{3},"InChI=1S/C6H5NO3/c8-6-4-2-1-3-5(6)7(9)10/h1-4,8H",IQUPABOKLQSFBK-UHFFFAOYSA-N,2-nitrophenol,4.234297351
,0.005751658,2.402689366,0,1,24,763,0.996903095,0.52204685,0.733057705,C_{6}H_{15}N_{3},"InChI=1S/C6H15N3/c7-1-4-9-5-2-8-3-6-9/h8H,1-7H2",IMUDHTPIFIBORV-UHFFFAOYSA-N,N-(.beta.-aminoethyl)piperazine),5.412917888
,,2.445523158,0,0,24,721,1.551869906,0.999942902,0.702037796,C_{9}H_{12}O,"InChI=1S/C9H12O/c1-3-8-4-7(2)5-9(10)6-8/h4-6,10H,3H2,1-2H3",XTCHLXABLZQNNN-UHFFFAOYSA-N,3-ethyl-5-methylphenol,3.367593246
,,2.656508693,0,0,24,541.4771354,0.495006647,0.92358385,1.670185001,C_{5}H_{10}O,"InChI=1S/C5H10O/c1-5(2,3)4-6/h4H,1-3H3",FJJYHTVHBVXEEQ-UHFFFAOYSA-N,"2,2-dimethylpropanal",5.341386834
,,2.7663805,0,0,24,560,2.228376161,0.412728906,0.764297645,C_{7}H_{3}F_{13}O,"InChI=1S/C7H3F13O/c8-2(9,1-21)3(10,11)4(12,13)5(14,15)6(16,17)7(18,19)20/h21H,1H2",STLNAVFVCIRZLL-UHFFFAOYSA-N,"2,2,3,3,4,4,5,5,6,6,7,7,7-tridecafluoro-1-heptanol",2.00549933
,,2.785608552,0,0,24,580,2.91853055,0.822731977,0.29390733,C_{6}H_{12}O_{2},"InChI=1S/C6H12O2/c1-5-3-4-7-6(2)8-5/h5-6H,3-4H2,1-2H3",VREPYGYMOSZTKJ-UHFFFAOYSA-N,"1,3-dioxane, 2,4-dimethyl- (cis,trans unspecified)",3.527443582
,,2.967331919,0,0,24,690,1.093320936,0.999900429,0.877161587,C_{9}H_{8}O,"InChI=1S/C9H8O/c1-7-6-8-4-2-3-5-9(8)10-7/h2-6H,1H3",GBGPVUAOTCNZPT-UHFFFAOYSA-N,2-methylbenzo[b]furan,3.841164618
,,3.481199253,0,0,24,763,1.500548893,0.999815831,0.865874667,C_{17}H_{28},"InChI=1S/C17H28/c1-2-3-4-5-6-7-8-9-11-14-17-15-12-10-13-16-17/h10,12-13,15-16H,2-9,11,14H2,1H3",XBEADGFTLHRJRB-UHFFFAOYSA-N,undecylbenzene,1.639518006
,,3.8193533,0,0,24,709,2.206824379,0.987948877,0.372184614,C_{14}H_{28},"InChI=1S/C14H28/c1-10(2)12-8-7-11(3)9-13(12)14(4,5)6/h10-13H,7-9H2,1-6H3",CLRHMJMFEKSASH-UHFFFAOYSA-N,1-tert-butyl-2-isopropyl-5-methylcyclohexane,1.741912648
0.067350408,2.218977577,4.068074908,36,1,24,743,0.620417307,0.838366931,1.241111923,C_{6}H_{4}Br_{2},InChI=1S/C6H4Br2/c7-5-2-1-3-6(8)4-5/h1-4H,JSRLURSZEMLAFO-UHFFFAOYSA-N,"1,3-dibromobenzene",4.759448155
,,4.236625373,0,0,24,710,1.26457128,0.962800796,1.229699406,C_{13}H_{25}N,"InChI=1S/C13H25N/c1-2-3-4-5-6-7-8-9-10-11-12-13-14/h2-12H2,1H3",WKJHMKQSIBMURP-UHFFFAOYSA-N,dodecanecarbonitrile,1.556580537
,,5.169485233,0,0,24,588,0.575512658,0.923646839,1.669687498,C_{5}H_{7}N,"InChI=1S/C5H7N/c1-3-5(2)4-6/h3,5H,1H2,2H3",WBAXCOMEMKANRN-UHFFFAOYSA-N,2-methyl-3-butenenitrile,4.20274158
,0.712685768,5.280079533,0,4,24,607.4817358,0.210992021,0.824435042,3.01573925,C_{8}H_{19}N,"InChI=1S/C8H19N/c1-3-5-7-9-8-6-4-2/h9H,3-8H2,1-2H3",JQVDAXLFBXTEQA-UHFFFAOYSA-N,dibutylamine,2.568891901
,,5.476905057,0,0,24,797,1.1294523,0.999998529,0.968723494,C_{6}HCl_{5},InChI=1S/C6HCl5/c7-2-1-3(8)5(10)6(11)4(2)9/h1H,CEOCDNVZRAIOQZ-UHFFFAOYSA-N,pentachlorobenzene,3.559760342
,,5.65662896,0,0,24,481,0.583232921,0.941483758,1.431719393,C_{3}HCl_{2}F_{5},"InChI=1S/C3HCl2F5/c4-1(5)2(6,7)3(8,9)10/h1H",COAUHYBSXMIJDK-UHFFFAOYSA-N,"1,1-dichloro-2,2,3,3,3-pentafluoropropane",3.158535002
,,5.703696223,0,0,24,652,0.607599622,0.828067651,1.909171124,C_{10}H_{20}O_{2},"InChI=1S/C10H20O2/c1-3-4-5-6-7-8-9-12-10(2)11/h3-9H2,1-2H3",YLYBTZIQSIBWLI-UHFFFAOYSA-N,octyl ethanoate,2.121151859
,,5.898864464,0,0,24,546.9,0.472544797,0.92259364,1.678884552,C_{7}H_{14},"InChI=1S/C7H14/c1-5-7(4)6(2)3/h5H2,1-4H3",WFHALSLYRWWUGH-UHFFFAOYSA-N,"2,3-dimethyl-2-pentene",2.942407448
,2.700452298,11.98934175,0,1,24,563.182,0.673301597,0.916091602,1.739815109,C_{6}H_{12}O_{3},"InChI=1S/C6H12O3/c1-4-7-5(2)9-6(3)8-4/h4-6H,1-3H3",SQYNKIJPMDEDEG-UHFFFAOYSA-N,"2,4,6-trimethyl-1,3,5-trioxane",3.652919734
,3.200792445,17.53161174,0,1,24,642.7,0,0.31204792,0.726483746,C_{8}H_{14},"InChI=1S/C8H14/c1-3-5-7-8-6-4-2/h3-6H2,1-2H3",GZTNBKQTTZSQNS-UHFFFAOYSA-N,4-octyne,3.087734133
,,25.42191625,0,0,24,736,1.225809446,0.001685836,1.482986161,C_{12}H_{26}O_{5},"InChI=1S/C12H26O5/c1-9(14)6-15-11(3)8-17-12(4)7-16-10(2)5-13/h9-14H,5-8H2,1-4H3",QVHMSMOUDQXMRS-UHFFFAOYSA-N,2-[2-[2-(2-hydroxypropoxy)propoxy]propoxy]-1-propanol,1.990741879
0.493020411,,30.99092743,13,0,24,688,0.544697034,0.805911002,1.800410325,C_{10}H_{22}S,"InChI=1S/C10H22S/c1-3-5-6-7-8-9-10-11-4-2/h3-10H2,1-2H3",WAITXWGCJQLPGH-UHFFFAOYSA-N,3-thiaundecane,1.994765377
,,0.045169418,0,0,23,694,0.279481572,0.821707743,2.119099656,C_{11}H_{14},"InChI=1S/C11H14/c1-11(2)8-7-9-5-3-4-6-10(9)11/h3-6H,7-8H2,1-2H3",UTTMVTDJCFSOFF-UHFFFAOYSA-N,"2,3-dihydro-1,1-dimethyl-1H-indene",3.375697514
,,0.046507457,0,0,23,637,0.211285332,0.848806882,2.568442403,C_{4}H_{5}NS,"InChI=1S/C4H5NS/c1-4-2-6-3-5-4/h2-3H,1H3",QMHIMXFNBOYPND-UHFFFAOYSA-N,4-methylthiazole,5.670821439
,,0.047451947,0,0,23,486,0.284375379,0.808671804,3.06001176,C_{8}F_{18}O,"InChI=1S/C8F18O/c9-1(10,5(17,18)19)3(13,14)7(23,24)27-8(25,26)4(15,16)2(11,12)6(20,21)22",LOJJTTDNNWYSGX-UHFFFAOYSA-N,bis(nonafluorobutyl) ether,1.343605509
,,0.058811236,0,0,23,723,1.191439051,0.999999967,0.79205967,C_{7}H_{4}ClN,InChI=1S/C7H4ClN/c8-7-3-1-6(5-9)2-4-7/h1-4H,GJNGXPDXRVXSEH-UHFFFAOYSA-N,"benzonitrile, p-chloro-",3.295197829
,0.000292331,0.090770748,0,1,23,597,0.261643455,0.825717808,1.992952607,C_{6}H_{14}S,"InChI=1S/C6H14S/c1-5-7-6(2,3)4/h5H2,1-4H3",GZJUDUMQICJSFJ-UHFFFAOYSA-N,"2,2-dimethyl-3-thiapentane",3.598521823
,,0.113464781,0,0,23,668,0.237553812,0.828308883,2.341730373,C_{10}H_{20},"InChI=1S/C10H20/c1-3-9(2)10-7-5-4-6-8-10/h9-10H,3-8H2,1-2H3",QTYARKOMFKRPSY-UHFFFAOYSA-N,1-methylpropylcyclohexane,3.105312515
,,0.116899954,0,0,23,606,0.722506093,0.853410883,1.188678346,C_{8}H_{20}Si,"InChI=1S/C8H20Si/c1-5-9(6-2,7-3)8-4/h5-8H2,1-4H3",VCZQFJFZMMALHB-UHFFFAOYSA-N,tetraethylsilane,2.30573746
,,0.121116306,0,0,23,643,0.515072752,0.845834565,1.445722162,C_{5}H_{7}NS,"InChI=1S/C5H7NS/c1-4-3-7-5(2)6-4/h3H,1-2H3",OBSLLHNATPQFMJ-UHFFFAOYSA-N,"2,4-dimethylthiazole",4.817970736
,,0.168952744,0,0,23,755,0.368069167,0.810796261,1.783894412,C_{12}H_{24},InChI=1S/C12H24/c1-2-4-6-8-10-12-11-9-7-5-3-1/h1-12H2,DDTBPAQBQHZRDW-UHFFFAOYSA-N,cyclododecane,2.87691785
,,0.175344087,0,0,23,510.2,0.635041382,0.871717046,1.149399692,C_{6}H_{12},"InChI=1S/C6H12/c1-3-5-6-4-2/h5-6H,3-4H2,1-2H3/b6-5-",ZQDPJFUHLCOCRG-WAYWQWQTSA-N,(Z)-3-hexene,3.308035305
,,0.200823388,0,0,23,527.6,0.934845032,0.931548363,0.81215009,C_{7}H_{14},"InChI=1S/C7H14/c1-5-6-7(2,3)4/h5-6H,1-4H3/b6-5+",BIDIHFPLDRSAMB-AATRIKPKSA-N,"(E)-4,4-dimethyl-2-pentene",3.406316659
,,0.233039829,0,0,23,573.8,0.89587464,0.90037976,0.964030773,C_{9}H_{20},"InChI=1S/C9H20/c1-6-9(4,5)7-8(2)3/h8H,6-7H2,1-5H3",SVEMKBCPZYWEPH-UHFFFAOYSA-N,"2,4,4-trimethylhexane",2.1994759
,,0.393494772,0,0,23,461.74844,0.842414909,0.898523842,1.151840126,C_{6}F_{10},"InChI=1S/C6F10/c7-1-2(8)4(11,12)6(15,16)5(13,14)3(1,9)10",ZFFLXJVVPHACEG-UHFFFAOYSA-N,"cyclohexene, decafluoro-",2.604340489