AAD_Csat,AAD_hfg,AAD_psat,N_Csat,N_hfg,N_psat,Tc_K,c0,c1,c2,formula,inchi,inchikey,name,pc_MPa
,,1.540666591,0,0,10,542.8,0.523132362,0.920565914,1.697694023,C_{7}H_{14},"InChI=1S/C7H14/c1-3-5-7-6-4-2/h3,5H,4,6-7H2,1-2H3/b5-3+",OTTZHAVKAVGASB-HWKANZROSA-N,"2-heptene, (E)-",2.960083884
,,1.571152487,0,0,10,833,2.176292824,0.939830516,0.911633422,C_{32}H_{66},"InChI=1S/C32H66/c1-4-7-10-13-16-17-18-19-20-21-22-25-28-31-32(29-26-23-14-11-8-5-2)30-27-24-15-12-9-6-3/h32H,4-31H2,1-3H3",VAVUILHRXZVBBR-UHFFFAOYSA-N,9-octyltetracosane,0.610997067
,,1.584345457,0,0,10,782,0.892286419,0.933627224,1.527417055,C_{8}H_{11}NO,"InChI=1S/C8H11NO/c10-7-6-9-8-4-2-1-3-5-8/h1-5,9-10H,6-7H2",MWGATWIBSKHFMR-UHFFFAOYSA-N,2-anilinoethanol,4.188778122
,,1.626925935,0,0,10,747,1.759076925,0.99934092,0.558982411,C_{14}H_{26},"InChI=1S/C14H26/c1-2-7-13(8-3-1)11-6-12-14-9-4-5-10-14/h13-14H,1-12H2",CPBZARXQRZTYGI-UHFFFAOYSA-N,1-cyclohexyl-3-cyclopentylpropane,2.001262454
,,1.632562175,0,0,10,569,0.6060163,0.919573495,1.707160975,C_{5}H_{10}S,"InChI=1S/C5H10S/c1-3-5-6-4-2/h3H,1,4-5H2,2H3",NOJXPGXFDASWEI-UHFFFAOYSA-N,3-(ethylthio)-1-propene,4.220810186
,,1.660245811,0,0,10,874,1.565877363,0.973837001,0.792944976,C_{21}H_{30},"InChI=1S/C21H30/c1-2-3-4-5-6-7-8-9-10-14-19-16-13-17-20-15-11-12-18-21(19)20/h11-13,15-18H,2-10,14H2,1H3",DDAIBSKPPVQJSU-UHFFFAOYSA-N,1-undecylnaphthalene,1.509467231
,,1.670375456,0,0,10,950,1.928148081,0.999674456,0.794917379,C_{31}H_{34},"InChI=1S/C31H34/c1-2-3-4-5-6-7-8-9-22-31(29-23-14-18-25-16-10-12-20-27(25)29)30-24-15-19-26-17-11-13-21-28(26)30/h10-24H,2-9H2,1H3",CXEYSUXGEZTNBF-UHFFFAOYSA-N,"1,1'-(1-undecenylidene)bisnaphthalene",1.144246068
,,1.727364191,0,0,10,761,1.661316641,0.999057071,0.795955392,C_{19}H_{38},"InChI=1S/C19H38/c1-3-5-7-10-14-18(15-11-8-6-4-2)19-16-12-9-13-17-19/h18-19H,3-17H2,1-2H3",UVRPAYBHYYNXMX-UHFFFAOYSA-N,(dihexylmethyl)cyclohexane,1.288141949
,,1.736146975,0,0,10,700,1.311435088,0.999781558,0.738942735,C_{4}H_{6}Cl_{2}O_{2},InChI=1S/C4H6Cl2O2/c5-1-2-8-4(7)3-6/h1-3H2,XPUCYTFPMSEFIN-UHFFFAOYSA-N,2-chloroethyl chloroacetate,3.557010883
,,1.758263892,0,0,10,563,0.444203422,0.923071017,1.67449851,C_{6}H_{12}O,"InChI=1S/C6H12O/c1-6(2)4-3-5-7-6/h3-5H2,1-2H3",ZPDIRKNRUWXYLJ-UHFFFAOYSA-N,"2,2-dimethyltetrahydrofuran",4.022949338
,,1.839998559,0,0,10,657,0.254394755,0.821234463,3.083535277,C_{6}H_{16}N_{2},"InChI=1S/C6H16N2/c1-6(5-8)3-2-4-7/h6H,2-5,7-8H2,1H3",JZUHIOJYCPIVLQ-UHFFFAOYSA-N,"2-methyl-1,5-pentanediamine",3.542377899
,,1.860713008,0,0,10,653,1.294168086,0.999834241,0.563731205,C_{9}H_{16},InChI=1S/C9H16/c1-2-6-9(5-1)7-3-4-8-9/h1-8H2,PHICBFWUYUCFKS-UHFFFAOYSA-N,spiro[4.4]nonane,3.569655351
,,1.923257404,0,0,10,779,1.028819432,0.833704837,1.347613469,C_{21}H_{44},"InChI=1S/C21H44/c1-4-7-10-13-16-19-21(18-15-12-9-6-3)20-17-14-11-8-5-2/h21H,4-20H2,1-3H3",FASYBMUJVAMAFB-UHFFFAOYSA-N,8-hexylpentadecane,1.066711729
,,1.926351903,0,0,10,602,0.48778767,0.921312402,1.690286866,C_{7}H_{14}O,"InChI=1S/C7H14O/c1-5-7(3,4)6(2)8/h5H2,1-4H3",QSHJLBQLQVSEFV-UHFFFAOYSA-N,"3,3-dimethyl-2-pentanone",3.213732822
,,1.934470208,0,0,10,692,0.988609502,0.967015179,1.201210569,C_{5}H_{10}Cl_{2}O_{2},InChI=1S/C5H10Cl2O2/c6-1-3-8-5-9-4-2-7/h1-5H2,NLXGURFLBLRZRO-UHFFFAOYSA-N,bis(2-chloroethoxy)methane,3.212608441
,,1.935344888,0,0,10,766,1.857040278,0.999394017,0.711686438,C_{20}H_{42},"InChI=1S/C20H42/c1-4-7-8-9-10-11-12-13-14-15-16-19-20(17-5-2)18-6-3/h20H,4-19H2,1-3H3",KWOQMARCKSGDGU-UHFFFAOYSA-N,4-propylheptadecane,1.080832017
,,1.998138988,0,0,10,836,2.514899454,0.993471941,0.408335573,C_{20}H_{32},"InChI=1S/C20H32/c1-3-5-7-8-11-18-12-9-13-19-15-14-17(10-6-4-2)16-20(18)19/h14-16,18H,3-13H2,1-2H3",NYCNHRDBUAZHFC-UHFFFAOYSA-N,"7-butyl-1-hexyl-1,2,3,4-tetrahydronaphthalene",1.365469154
,,2.014960891,0,0,10,589.5209869,0.995494898,0.693410187,0.872664594,C_{7}H_{14}O_{2},"InChI=1S/C7H14O2/c1-4-7(8)9-5-6(2)3/h6H,4-5H2,1-3H3",FZXRXKLUIMKDEL-UHFFFAOYSA-N,2-methylpropyl propanoate,2.782092502
,,2.074076662,0,0,10,719,0.330036717,0.80674906,3.425004117,C_{10}H_{18}O_{2},"InChI=1S/C10H18O2/c1-7(2)8-4-5-10(3,6-8)9(11)12/h7-8H,4-6H2,1-3H3,(H,11,12)",IBDVYGIGYPWWBX-UHFFFAOYSA-N,1-methyl-3-isopropylcyclopentanecarboxylic acid,2.909343975
,0.036401437,2.108694677,0,1,10,576,0.534804213,0.819443305,1.446771189,C_{5}H_{8}O_{2},"InChI=1S/C5H8O2/c1-7-5(6)4-2-3-4/h4H,2-3H2,1H3",PKAHQJNJPDVTDP-UHFFFAOYSA-N,"cyclopropanecarboxylic acid, methyl ester",3.444928989
,,2.131252381,0,0,10,698,0.565659484,0.795943606,1.217857614,C_{12}H_{16},"InChI=1S/C12H16/c1-10(12(2,3)4)11-8-6-5-7-9-11/h5-9H,1H2,2-4H3",OJHQXSRIBZMCSR-UHFFFAOYSA-N,"(2,2-dimethyl-1-methylenepropyl)benzene",2.736573726
,,2.151367705,0,0,10,730,1.031884995,0.723186169,0.807500953,C_{8}H_{11}N,"InChI=1S/C8H11N/c1-6-3-4-7(2)8(9)5-6/h3-5H,9H2,1-2H3",VOWZNBNDMFLQGM-UHFFFAOYSA-N,"1-amino-2,5-dimethylbenzene",4.255411867
,,2.158921577,0,0,10,619,0.884234853,0.96584062,1.209943565,C_{7}H_{12}O_{2},"InChI=1S/C7H12O2/c1-2-9-7(8)6-4-3-5-6/h6H,2-5H2,1H3",SMVBADCAMQOTOV-UHFFFAOYSA-N,"cyclobutanecarboxylic acid, ethyl ester",3.597218354
,,2.185659052,0,0,10,740,0.749272097,0.916070404,1.740047874,C_{10}H_{12}O_{3},"InChI=1S/C10H12O3/c1-9(11)12-7-8-13-10-5-3-2-4-6-10/h2-6H,7-8H2,1H3",WHFKYDMBUMLWDA-UHFFFAOYSA-N,2-phenoxyethyl ethanoate,2.967187411
,,2.209989062,0,0,10,803,1.419208983,0.959080362,1.262430071,C_{26}H_{54},"InChI=1S/C26H54/c1-4-7-10-12-14-15-16-17-18-20-22-25-26(23-9-6-3)24-21-19-13-11-8-5-2/h26H,4-25H2,1-3H3",OIHDCDZZRDGEIB-UHFFFAOYSA-N,9-butyldocosane,0.784251471
,,2.211566541,0,0,10,925,2.668956725,0.131372401,0.823722156,C_{25}H_{38},"InChI=1S/C25H38/c1-2-3-4-5-6-7-8-9-10-11-12-13-14-18-23-20-17-21-24-19-15-16-22-25(23)24/h15-17,19-22H,2-14,18H2,1H3",CRNKGYFOWLZFDQ-UHFFFAOYSA-N,1-pentadecylnaphthalene,1.02349799
,,2.274601504,0,0,10,840,1.042635669,0.986606892,1.072142247,C_{12}H_{9}ClO,"InChI=1S/C12H9ClO/c13-12-10(7-4-8-11(12)14)9-5-2-1-3-6-9/h1-8,14H",VIIPWHMLMYZBFM-UHFFFAOYSA-N,2-chloro-3-phenylphenol,2.987065292
,,2.291122919,0,0,10,833,2.106162835,0.899064588,0.792664305,C_{29}H_{58},"InChI=1S/C29H58/c1-5-7-9-11-13-15-17-19-21-28(29-25-26(3)23-24-27(29)4)22-20-18-16-14-12-10-8-6-2/h26-29H,5-25H2,1-4H3",UPYOZECJBFFKFT-UHFFFAOYSA-N,"11-(2,5-dimethylcyclohexyl)heneicosane",0.7274722
,,2.314741421,0,0,10,740,1.265600818,0.999981059,0.934262153,C_{10}H_{12}O_{2},"InChI=1S/C10H12O2/c1-3-4-8-5-6-10(12-2)9(11)7-8/h3,5-7,11H,1,4H2,2H3",NPBVQXIMTZKSBA-UHFFFAOYSA-N,5-allyl-2-methoxyphenol,2.960065891
,,2.319364514,0,0,10,830,0.624171618,0.899905937,1.902079207,C_{10}H_{9}N,"InChI=1S/C10H9N/c11-10-7-3-5-8-4-1-2-6-9(8)10/h1-7H,11H2",RUFPHBVGCFYCNW-UHFFFAOYSA-N,1-naphthalenamine,4.605447321
,0.161445695,2.319373235,0,3,10,628.7,0.332154201,0.83776233,2.757263338,C_{11}H_{24},"InChI=1S/C11H24/c1-4-6-7-8-10-11(3)9-5-2/h11H,4-10H2,1-3H3",DVWZNKLWPILULD-UHFFFAOYSA-N,4-methyldecane,2.10984649
,,2.334485166,0,0,10,617,1.08712231,0.999943804,0.849709381,C_{7}H_{12}O,"InChI=1S/C7H12O/c1-8-7-5-3-2-4-6-7/h5H,2-4,6H2,1H3",HZFQGYWRFABYSR-UHFFFAOYSA-N,1-methoxycyclohexene,3.859193263
,,2.38541849,0,0,10,622,0.697746203,0.914189132,1.758148184,C_{4}H_{8}O_{3},"InChI=1S/C4H8O3/c1-2-7-4(6)3-5/h5H,2-3H2,1H3",ZANNOFHADGWOLI-UHFFFAOYSA-N,ethyl hydroxyethanoate,4.531721769
,,2.424498072,0,0,10,854,1.338153895,0.797443077,1.484134813,C_{34}H_{70},"InChI=1S/C34H70/c1-4-7-10-13-16-17-18-19-20-21-22-23-24-27-30-33-34(31-28-25-14-11-8-5-2)32-29-26-15-12-9-6-3/h34H,4-33H2,1-3H3",CDTWRIBBCOMBSI-UHFFFAOYSA-N,9-octylhexacosane,0.511010087
,,2.447992092,0,0,10,727,0,0.470402793,0.926009867,C_{5}H_{11}NO_{2},"InChI=1S/C5H11NO2/c1-2-3-4-5-6(7)8/h2-5H2,1H3",BVALZCVRLDMXOQ-UHFFFAOYSA-N,1-nitropentane,3.555131996
,,2.458627518,0,0,10,722,0.621147792,0.923694878,1.669318418,C_{8}H_{8}Cl_{2},"InChI=1S/C8H8Cl2/c1-2-6-4-3-5-7(9)8(6)10/h3-5H,2H2,1H3",KEBKSRNCCOFIBI-UHFFFAOYSA-N,"1,2-dichloro-3-ethylbenzene",3.646581757
,,2.478751724,0,0,10,719,1.173427698,0.999993517,0.890326817,C_{10}H_{13}ClO,"InChI=1S/C10H13ClO/c1-9(12-8-7-11)10-5-3-2-4-6-10/h2-6,9H,7-8H2,1H3",BFOFDGPHOGGFML-UHFFFAOYSA-N,2-chloroethyl alpha-methylbenzyl ether,2.545048754
,,2.528747903,0,0,10,672,0.699182234,0.909566975,1.803218561,C_{9}H_{20}O_{3},"InChI=1S/C9H20O3/c1-4-5-11-7-9(3)12-6-8(2)10/h8-10H,4-7H2,1-3H3",WEZPLQKRXDBPEP-UHFFFAOYSA-N,1-(1-methyl-2-propoxyethoxy)-2-propanol,2.407596181
,,2.569214832,0,0,10,768,1.213509832,0.978009677,1.124750586,C_{14}H_{20}O_{3},"InChI=1S/C14H20O3/c1-11(15)16-9-10-17-13-7-5-12(6-8-13)14(2,3)4/h5-8H,9-10H2,1-4H3",WYQODQADGFDSGS-UHFFFAOYSA-N,2-(4-tert-butylphenoxy)ethyl acetate,1.947688761
,,2.611911183,0,0,10,732,1.168195974,0.999874649,0.781670668,C_{8}H_{8}O_{2},"InChI=1S/C8H8O2/c1-2-4-8-7(3-1)9-5-6-10-8/h1-4H,5-6H2",BNBQRQQYDMDJAH-UHFFFAOYSA-N,"1,4-benzodioxan",4.298780502
,,2.654101572,0,0,10,626.0236836,1.115152051,0.918408699,0.898025065,C_{9}H_{20}O,"InChI=1S/C9H20O/c1-8(2,3)7(10)9(4,5)6/h7,10H,1-6H3",WFJSIIHYYLHRHB-UHFFFAOYSA-N,"2,2,4,4-tetramethyl-3-pentanol",2.853244045
,,2.76529109,0,0,10,853,0.425797737,0.169634554,1.829799474,C_{36}H_{74},"InChI=1S/C36H74/c1-4-7-10-13-16-19-22-25-28-31-34-36(33-30-27-24-21-18-15-12-9-6-3)35-32-29-26-23-20-17-14-11-8-5-2/h36H,4-35H2,1-3H3",ZBOLLHDWYFHOST-UHFFFAOYSA-N,13-undecylpentacosane,0.52391072
,,2.783414402,0,0,10,657.5,1.443492421,0.999973498,0.653567272,C_{6}H_{12}Cl_{2}O,"InChI=1S/C6H12Cl2O/c1-5(3-7)9-6(2)4-8/h5-6H,3-4H2,1-2H3",QCFYJCYNJLBDRT-UHFFFAOYSA-N,bis(2-chloro-1-methylethyl) ether,2.871052186
,,2.80291094,0,0,10,840,1.157203598,0.999844956,0.947967098,C_{12}H_{9}ClO,"InChI=1S/C12H9ClO/c13-11-8-4-7-10(12(11)14)9-5-2-1-3-6-9/h1-8,14H",XBILVINOJVKEHG-UHFFFAOYSA-N,2-hydroxy-3-chlorobiphenyl,2.964137629
,,2.888144202,0,0,10,677,0.648279079,0.923235935,1.673504835,C_{5}H_{10}Cl_{2}O,"InChI=1S/C5H10Cl2O/c1-5(7)4-8-3-2-6/h5H,2-4H2,1H3",AIOGEBYNUSLMPF-UHFFFAOYSA-N,(2-chloroethyl) (2-chloropropyl) ether,3.849827123
,,2.917260546,0,0,10,590,0.669883373,0.957344531,1.27535499,C_{6}H_{12}O,"InChI=1S/C6H12O/c1-3-6(4-2)5-7/h5-6H,3-4H2,1-2H3",UNNGUFMVYQJGTD-UHFFFAOYSA-N,2-ethylbutanal,3.867668489
,,2.944149334,0,0,10,787,1.387939083,0.99995833,0.792886475,C_{6}H_{2}Cl_{4}O,"InChI=1S/C6H2Cl4O/c7-2-1-3(8)6(11)5(10)4(2)9/h1,11H",VGVRPFIJEJYOFN-UHFFFAOYSA-N,"2,3,4,6-tetrachlorophenol",3.464242709
,0.085819547,2.979760673,0,1,10,632.8,0.18915596,0.827186353,2.94335314,C_{8}H_{18}S,"InChI=1S/C8H18S/c1-7(2)5-9-6-8(3)4/h7-8H,5-6H2,1-4H3",CMWSRWTXVQLHNX-UHFFFAOYSA-N,"2,6-dimethyl-4-thiaheptane",2.587460552
,,3.038321808,0,0,10,577,1.857694423,0.997232969,0.435136568,C_{6}H_{10}O,"InChI=1S/C6H10O/c1-7-6-4-2-3-5-6/h4H,2-3,5H2,1H3",GKIATJNLLNNGJV-UHFFFAOYSA-N,1-methoxycyclopentene,4.037044811
,,3.103606897,0,0,10,529,0.756663503,0.89499807,1.954961271,C_{8}BrF_{17},"InChI=1S/C8BrF17/c9-7(22,23)5(18,19)3(14,15)1(10,11)2(12,13)4(16,17)6(20,21)8(24,25)26",WTWWXOGTJWMJHI-UHFFFAOYSA-N,1-bromoperfluorooctane,1.532401367
,,3.267504861,0,0,10,732,0.555823189,0.812597192,1.517802791,C_{9}H_{13}N,"InChI=1S/C9H13N/c1-7(2)8-5-3-4-6-9(8)10/h3-7H,10H2,1-2H3",YKOLZVXSPGIIBJ-UHFFFAOYSA-N,2-(1-methylethyl)benzenamine,3.35214091
,,3.347929385,0,0,10,789,0.73739532,0.957214534,1.27936762,C_{7}H_{4}Cl_{4},"InChI=1S/C7H4Cl4/c8-6-4-2-1-3-5(6)7(9,10)11/h1-4H",MFHPYLFZSCSNST-UHFFFAOYSA-N,"benzene, 1-chloro-2-(trichloromethyl)-",3.193451666
,,3.356383975,0,0,10,490.8,0.314901312,0.900472848,1.896139201,C_{3}H_{5}Cl,"InChI=1S/C3H5Cl/c1-2-3-4/h2-3H,1H3",OWXJKYNZGFSVRC-UHFFFAOYSA-N,1-chloro-1-propene,4.678801225
,,3.386043339,0,0,10,804,0.674014753,0.923086715,1.674877868,C_{8}H_{5}Cl_{5},"InChI=1S/C8H5Cl5/c1-2-3-4(9)6(11)8(13)7(12)5(3)10/h2H2,1H3",JBLPFPMLHWDSFR-UHFFFAOYSA-N,pentachloroethylbenzene,2.76815556
,,3.388772064,0,0,10,635,0,0.331244416,0.726104279,C_{2}H_{2}Br_{2},InChI=1S/C2H2Br2/c3-1-2-4/h1-2H/b2-1-,UWTUEMKLYAGTNQ-UPHRSURJSA-N,"(Z)-1,2-dibromoethene",4.377331436
,,3.464228733,0,0,10,782,0.803985708,0.891855657,1.989760731,C_{19}H_{36},"InChI=1S/C19H36/c1-2-3-4-5-6-7-8-9-12-17-15-18-13-10-11-14-19(18)16-17/h17-19H,2-16H2,1H3",AFLBFEWFPKHXHU-UHFFFAOYSA-N,8-decylbicyclo[4.3.0]nonane,1.539261953
,,3.489760518,0,0,10,826,0.771970001,0.891726882,1.991216653,C_{10}H_{15}NO_{2},"InChI=1S/C10H15NO2/c12-8-6-11(7-9-13)10-4-2-1-3-5-10/h1-5,12-13H,6-9H2",OJPDDQSCZGTACX-UHFFFAOYSA-N,"2,2'-(phenylimino)diethanol",3.16745971
,,3.524915891,0,0,10,530,0.740797749,0.89223306,1.985546357,C_{8}H_{2}F_{16},"InChI=1S/C8H2F16/c9-1(10)3(13,14)5(17,18)7(21,22)8(23,24)6(19,20)4(15,16)2(11)12/h1-2H",JCRVQXKRULILSR-UHFFFAOYSA-N,"1,1,2,2,3,3,4,4,5,5,6,6,7,7,8,8-hexadecafluorooctane",2.207234786
,,3.634853142,0,0,10,846,0.891122017,0.853583788,2.492833309,C_{28}H_{34},"InChI=1S/C28H34/c1-4-13-25(14-5-1)19-10-22-28(23-11-20-26-15-6-2-7-16-26)24-12-21-27-17-8-3-9-18-27/h1-9,13-18,28H,10-12,19-24H2",QQEZQKPPCWXFPH-UHFFFAOYSA-N,"benzene, 1,1'-[4-(3-phenylpropyl)-1,7-heptanediyl]bis-",1.231935726
,,3.656263264,0,0,10,832,1.026371877,8.48265E-05,1.331108523,C_{26}H_{50},"InChI=1S/C26H50/c1-2-3-4-5-6-7-8-9-10-11-12-13-14-23-26(24-19-15-16-20-24)25-21-17-18-22-25/h24-26H,2-23H2,1H3",CUGOOMPOAPXGEE-UHFFFAOYSA-N,"1,1'-hexadecylidenebiscyclopentane",0.901314756
,,3.673907516,0,0,10,669.5,0.734608072,0.9042044,1.857265658,C_{11}H_{20}O_{2},"InChI=1S/C11H20O2/c1-3-5-6-7-8-9-10-13-11(12)4-2/h4H,2-3,5-10H2,1H3",ANISOHQJBAQUQP-UHFFFAOYSA-N,octyl 2-propenoate,2.12200294
,,3.870171577,0,0,10,840,1.9577715,0.99977987,0.358909706,C_{6}H_{3}BrCl_{2}O,"InChI=1S/C6H3BrCl2O/c7-4-1-3(8)2-5(9)6(4)10/h1-2,10H",FRPHJINKMDMSPH-UHFFFAOYSA-N,"6-bromo-2,4-dichlorophenol",4.11282744
,,3.892317353,0,0,10,894,0.000370267,0.05287802,0.634819258,C_{8}H_{12}N_{2}O_{3},"InChI=1S/C8H12N2O3/c1-3-9-6(11)5-7(12)10(4-2)8(9)13/h3-5H2,1-2H3",XUCMDLYIYOXEBF-UHFFFAOYSA-N,"1,3-diethylbarbituric acid",3.634682267
,0.022827614,3.923288327,0,1,10,647,1.052834528,0.99999705,0.944044358,C_{4}H_{8}O_{2},"InChI=1S/C4H8O2/c1-3(5)4(2)6/h3,5H,1-2H3",ROWKJAVDOGWPAT-UHFFFAOYSA-N,"2,3-butanolone",6.405262098
,,4.065390747,0,0,10,837,1.457015815,0.341201559,0.48887588,C_{6}H_{3}Cl_{3}O,"InChI=1S/C6H3Cl3O/c7-3-1-5(9)6(10)2-4(3)8/h1-2,10H",LHJGJYXLEPZJPM-UHFFFAOYSA-N,"2,4,5-trichlorophenol",4.165526029
,,4.066526932,0,0,10,795,0.843204741,0.882086157,2.103475329,C_{20}H_{32},"InChI=1S/C20H32/c1-4-5-6-7-8-9-11-18-12-10-13-19-16(2)14-15-17(3)20(18)19/h14-15,18H,4-13H2,1-3H3",YGXXXFDZLBVJPP-UHFFFAOYSA-N,"5,8-dimethyl-1-octyl-1,2,3,4-tetrahydronaphthalene",1.959130911
,0.096376717,4.185519885,0,1,10,704,0.275805987,0.852163369,2.514924699,C_{4}H_{8}Br_{2},InChI=1S/C4H8Br2/c5-3-1-2-4-6/h1-4H2,ULTHEAFYOOPTTB-UHFFFAOYSA-N,"1,4-dibromobutane",4.13603778
,,4.211639493,0,0,10,624,2.041113196,0.994047887,0.35907172,C_{4}H_{8}Cl_{2},"InChI=1S/C4H8Cl2/c1-4(2-5)3-6/h4H,2-3H2,1H3",VENSUTAUIFXSRD-UHFFFAOYSA-N,"1,3-dichloro-2-methylpropane",3.707315118
,,4.2498833,0,0,10,709,0.60064937,0.923699022,1.669271117,C_{8}H_{8}Cl_{2},"InChI=1S/C8H8Cl2/c1-2-6-5-7(9)3-4-8(6)10/h3-5H,2H2,1H3",PZPSDDYNMXBZOA-UHFFFAOYSA-N,"2,5-dichloroethylbenzene",3.188064415
,,4.397675919,0,0,10,837,0.723187962,0.901068169,1.889875422,C_{15}H_{14}O_{2},"InChI=1S/C15H14O2/c1-2-6-12(7-3-1)14-8-4-5-9-15(14)17-11-13-10-16-13/h1-9,13H,10-11H2",DNVXWIINBUTFEP-UHFFFAOYSA-N,"3-(o-biphenylyloxy)-1,2-epoxypropane",3.01455053
,,4.468530705,0,0,10,716,0.584423978,0.90688797,1.82957032,C_{9}H_{12}O,"InChI=1S/C9H12O/c1-3-8-4-5-9(10)7(2)6-8/h4-6,10H,3H2,1-2H3",QDQMEHXIUFCIGR-UHFFFAOYSA-N,4-ethyl-2-methylphenol,3.355917472
,,4.487049232,0,0,10,770,1.479421185,0.999914297,0.860018346,C_{6}H_{8}Cl_{2}O_{4},InChI=1S/C6H8Cl2O4/c7-3-5(9)11-1-2-12-6(10)4-8/h1-4H2,HIIBHBNRMVLLKH-UHFFFAOYSA-N,ethyleneglycol bis(chloroethanoate),2.821657186
,,4.49957213,0,0,10,554,0.68081502,0.883139262,2.090828204,C_{4}H_{10}O_{2},"InChI=1S/C4H10O2/c1-6-4-2-3-5/h5H,2-4H2,1H3",JDFDHBSESGTDAL-UHFFFAOYSA-N,3-methoxy-1-propanol,5.227714839
,,4.501950752,0,0,10,735,0.801010742,0.880809622,2.118968472,C_{17}H_{34}O_{2},"InChI=1S/C17H34O2/c1-4-5-6-7-8-9-10-11-12-13-14-15-17(18)19-16(2)3/h16H,4-15H2,1-3H3",AXISYYRBXTVTFY-UHFFFAOYSA-N,1-methylethyl tetradecanoate,1.356482536
0.027202906,,4.573021789,1,0,10,821,0.423187274,0.867509393,2.290608569,C_{12}H_{9}Cl,InChI=1S/C12H9Cl/c13-12-8-6-11(7-9-12)10-4-2-1-3-5-10/h1-9H,FPWNLURCHDRMHC-UHFFFAOYSA-N,4-chlorobiphenyl,3.887588986
,,4.743882712,0,0,10,622,0.047863704,0.255475015,1.059452126,C_{8}H_{18}O,"InChI=1S/C8H18O/c1-6-7(2,3)8(4,5)9/h9H,6H2,1-5H3",FBWWGYIEJGQWJP-UHFFFAOYSA-N,"2,3,3-trimethyl-2-pentanol",2.957123374
0.125844811,,4.858630347,3,0,10,791,0.550498928,0.823322005,1.566891876,C_{12}H_{9}Cl,InChI=1S/C12H9Cl/c13-12-9-5-4-8-11(12)10-6-2-1-3-7-10/h1-9H,LAXBNTIAOJWAOP-UHFFFAOYSA-N,"2-chloro-1,1'-biphenyl",2.984120846
,,4.913290423,0,0,10,680,1.354642308,0.999861107,0.852808859,C_{6}H_{12}Cl_{2}O_{2},"InChI=1S/C6H12Cl2O2/c1-6(9-4-2-7)10-5-3-8/h6H,2-5H2,1H3",KHNOWHUSVXGGLG-UHFFFAOYSA-N,"1,1-bis(2-chloroethoxy)ethane",2.651503977
,,5.010815943,0,0,10,638,0.785452983,0.884042424,2.079993594,C_{4}H_{9}ClO_{2},"InChI=1S/C4H9ClO2/c5-1-3-7-4-2-6/h6H,1-4H2",LECMBPWEOVZHKN-UHFFFAOYSA-N,2-(2-chloroethoxy)ethanol,4.085839986
,,5.081298487,0,0,10,770,0.671696619,0.922933168,1.676240479,C_{8}H_{6}Cl_{4},"InChI=1S/C8H6Cl4/c1-2-4-5(9)3-6(10)8(12)7(4)11/h3H,2H2,1H3",XSPWAZBXVGCKOK-UHFFFAOYSA-N,"1,2,3,5-tetrachloro-4-ethylbenzene",3.178514259
,,5.088689268,0,0,10,610,1.713581596,0.500381925,0.725025436,C_{7}H_{16}O,"InChI=1S/C7H16O/c1-6(2)4-7(3)5-8/h6-8H,4-5H2,1-3H3",OVOVDHYEOQJKMD-UHFFFAOYSA-N,"2,4-dimethyl-1-pentanol",3.055829275
,,5.254586939,0,0,10,828,1.765630979,0.976779538,0.632327278,C_{6}HCl_{5}O,InChI=1S/C6HCl5O/c7-1-2(8)4(10)6(12)5(11)3(1)9/h12H,IZUPBVBPLAPZRR-UHFFFAOYSA-N,pentachlorophenol,3.26748245
,,5.538388392,0,0,10,682,1.214664553,0.492371866,0.58241304,C_{9}H_{18},InChI=1S/C9H18/c1-2-4-6-8-9-7-5-3-1/h1-9H2,GPTJTTCOVDDHER-UHFFFAOYSA-N,cyclononane,3.35647274
,,5.65007739,0,0,10,620.5818182,0,0.137341595,1.014149328,C_{7}H_{14}O_{3},"InChI=1S/C7H14O3/c1-3-9-6-5-7(8)10-4-2/h3-6H2,1-2H3",BHXIWUJLHYHGSJ-UHFFFAOYSA-N,ethyl .beta.-ethoxypropionate,2.658811508
,,5.706982973,0,0,10,594.6,0,0.158004676,0.956512776,C_{7}H_{14}O,"InChI=1S/C7H14O/c1-4-7(8)5-6(2)3/h6H,4-5H2,1-3H3",DXVYLFHTJZWTRF-UHFFFAOYSA-N,2-methyl-4-hexanone,2.949254066
,,5.743266112,0,0,10,688.2,0.159899655,0.786337026,3.998857649,C_{16}H_{34},"InChI=1S/C16H34/c1-5-6-7-8-9-10-11-12-13-16(4)14-15(2)3/h15-16H,5-14H2,1-4H3",NWTLFDYNCLTSAR-UHFFFAOYSA-N,"tetradecane, 2,4-dimethyl-",1.340603774
,0.016992045,5.819198256,0,1,10,740,0.518763077,0.81050636,3.330978738,C_{19}H_{32}O_{2},"InChI=1S/C19H32O2/c1-3-4-5-6-7-8-9-10-11-12-13-14-15-16-17-18-19(20)21-2/h4-5,7-8,10-11H,3,6,9,12-18H2,1-2H3/b5-4-,8-7-,11-10-",DVWSXZIHSUZZKJ-YSTUJMKBSA-N,"methyl (Z,Z,Z)-9,12,15-octadecatrienoate",1.204795907
,,5.950654305,0,0,10,829,0.853810186,0.868880562,2.272007424,C_{25}H_{48},"InChI=1S/C25H48/c1-2-3-4-5-6-7-8-9-10-11-12-13-14-15-18-23-21-22-24-19-16-17-20-25(23)24/h23-25H,2-22H2,1H3",XYDNFNUIQWCNEV-UHFFFAOYSA-N,7-hexadecylbicyclo[4.3.0]nonane,1.044886004
,,6.109364495,0,0,10,828,0.648817545,0.923577922,1.670387363,C_{12}H_{9}BrO,"InChI=1S/C12H9BrO/c13-11-8-10(6-7-12(11)14)9-4-2-1-3-5-9/h1-8,14H",DZGMMVYPLBTLRQ-UHFFFAOYSA-N,2-bromo-4-phenylphenol,3.009282426
,,6.515837513,0,0,10,633,0.708417785,0.843118821,2.663102534,C_{11}H_{8}F_{16}O_{2},"InChI=1S/C11H8F16O2/c12-4(13)8(20,21)10(24,25)6(16,17)1-28-3-29-2-7(18,19)11(26,27)9(22,23)5(14)15/h4-5H,1-3H2",WRQVEYLQVQPLKN-UHFFFAOYSA-N,"bis((2,2,3,3,4,4,5,5-octafluoropentyl)oxy)methane",1.935904187
,,6.64506746,0,0,10,734,0.716153214,0.904119355,1.858042918,C_{16}H_{25}Cl,"InChI=1S/C16H25Cl/c1-6-11-12(7-2)14(9-4)16(17)15(10-5)13(11)8-3/h6-10H2,1-5H3",JXNSEOJLFKCHAI-UHFFFAOYSA-N,"benzene, chloropentaethyl-",1.724848207
,,6.759280568,0,0,10,628,2.049312831,0.998367529,0.577420499,C_{8}H_{16}O,"InChI=1S/C8H16O/c1-7(2)5-4-6-8(3)9/h5,8-9H,4,6H2,1-3H3",OHEFFKYYKJVVOX-UHFFFAOYSA-N,6-methyl-5-hepten-2-ol,2.976768879