AAD_Csat,AAD_hfg,AAD_psat,N_Csat,N_hfg,N_psat,Tc_K,c0,c1,c2,formula,inchi,inchikey,name,pc_MPa
,,0.136607083,0,0,15,735,0.327389629,0.814646752,3.231607079,C_{15}H_{30}O,"InChI=1S/C15H30O/c1-3-5-7-9-11-13-15(16)14-12-10-8-6-4-2/h3-14H2,1-2H3",PQYGSSYFJIJDFK-UHFFFAOYSA-N,8-pentadecanone,1.536828163
,,0.137238031,0,0,15,536,0.345387272,0.79918938,3.629251359,C_{10}F_{22}O_{8},"InChI=1S/C10F22O8/c11-1(12,33-5(21,22)37-9(29,30)39-7(25,26)35-3(15,16)17)2(13,14)34-6(23,24)38-10(31,32)40-8(27,28)36-4(18,19)20",FUEWSPZXMQYTKN-UHFFFAOYSA-N,"perfluoro-2,4,6,8,11,13,15,17-octaoxaoctadecane",1.015361881
,,0.138815098,0,0,15,372.35,1.080577475,0.968942591,0.878458982,C_{3}F_{8}O_{2},"InChI=1S/C3F8O2/c4-1(5,6)12-3(10,11)13-2(7,8)9",JBMJTZMGVDWHRJ-UHFFFAOYSA-N,difluorobis(trifluoromethoxy)methane,2.336651787
,,0.153080862,0,0,15,755,0.887003256,0.946576153,1.379103534,C_{11}H_{15}N,"InChI=1S/C11H15N/c1-2-5-11(6-3-1)7-10-12-8-4-9-12/h1-3,5-6H,4,7-10H2",VIXGVWUHPTYYAH-UHFFFAOYSA-N,"azetidine, 1-(2-phenylethyl)-",3.028669245
,,0.158149422,0,0,15,804,0.567646987,0.305615973,1.368371609,C_{19}H_{36}O_{3},"InChI=1S/C19H36O3/c1-3-4-5-12-15-18(20)16-13-10-8-6-7-9-11-14-17-19(21)22-2/h10,13,18,20H,3-9,11-12,14-17H2,1-2H3",XKGDWZQXVZSXAO-UHFFFAOYSA-N,[R]-methyl 12-hydroxy-9-octadecenoate,1.195873413
,,0.181403607,0,0,15,685,1.279084688,0.999999593,0.925861638,C_{8}H_{14}O_{3},"InChI=1S/C8H14O3/c1-3-6-11-8(10)5-4-7(2)9/h3-6H2,1-2H3",QOSMNYMQXIVWKY-UHFFFAOYSA-N,propyl levulinate,2.694389122
,,0.37920612,0,0,15,627,0.619640972,0.850426585,1.07631131,C_{4}H_{4}N_{2},InChI=1S/C4H4N2/c1-2-6-4-3-5-1/h1-4H,KYQCOXFCLRTKLS-UHFFFAOYSA-N,pyrazine,6.489857613
,,0.386594254,0,0,15,618,0.211884515,0.828617329,2.929823951,C_{8}H_{14}O,"InChI=1S/C8H14O/c1-4-8(6-9)5-7(2)3/h5-7H,4H2,1-3H3",JBGRAQBQMATPJJ-UHFFFAOYSA-N,2-ethyl-4-methyl-2-pentenal,2.514754324
,,0.43061141,0,0,15,555,0.977505276,0.919400979,1.197076785,C_{6}H_{4}F_{8}O_{2},"InChI=1S/C6H4F8O2/c1-16-3(15)5(11,12)6(13,14)4(9,10)2(7)8/h2H,1H3",NARNQFAFGNRNNN-UHFFFAOYSA-N,methyl 5H-perfluoropentanoate,2.206591987
,,0.452465003,0,0,15,532.4613501,0.849547669,0.841535771,0.996959225,C_{4}Br_{2}F_{8},"InChI=1S/C4Br2F8/c5-3(11,12)1(7,8)2(9,10)4(6,13)14",RWWUGYJWSVESJC-UHFFFAOYSA-N,"1,4-dibromoperfluorobutane",2.39
,,0.471317301,0,0,15,662,0.648776231,0.891421029,1.994664818,C_{8}H_{14}O_{3},"InChI=1S/C8H14O3/c1-6(2)11-8(10)5-4-7(3)9/h6H,4-5H2,1-3H3",MGJRGGIHFUREHT-UHFFFAOYSA-N,isopropyl levulinate,2.880137203
,,0.487523094,0,0,15,631,1.272059953,0.999816334,0.614056616,C_{5}H_{10}Cl_{2},"InChI=1S/C5H10Cl2/c1-2-3-5(7)4-6/h5H,2-4H2,1H3",PPLBPDUKNRCHGG-UHFFFAOYSA-N,"1,2-dichloropentane",3.370711044
,0.001102202,0.555455445,0,1,15,587,0.811135411,0.938788421,1.463644618,C_{8}H_{16}O_{2},"InChI=1S/C8H16O2/c1-5-7(9)10-8(3,4)6-2/h5-6H2,1-4H3",RHSLWHLBYFOBAF-UHFFFAOYSA-N,"1,1-dimethylpropyl propanoate",2.777019171
,,0.607850662,0,0,15,679,0.46352188,0.846659364,2.603585028,C_{9}H_{16}O_{3},"InChI=1S/C9H16O3/c1-7(2)6-12-9(11)5-4-8(3)10/h7H,4-6H2,1-3H3",WETOYPNHZMSVFZ-UHFFFAOYSA-N,isobutyl levulinate,2.45055507
,,0.697634359,0,0,15,541,0.408271898,0.899169361,1.909893121,C_{5}H_{11}N,"InChI=1S/C5H11N/c1-6-4-2-3-5-6/h2-5H2,1H3",AVFZOVWCLRSYKC-UHFFFAOYSA-N,N-methylpyrrolidine,4.522371628
,,0.739178413,0,0,15,462.72,0.573545072,0.80955813,1.43249166,C_{5}H_{3}F_{9}O,"InChI=1S/C5H3F9O/c1-15-2(3(6,7)8,4(9,10)11)5(12,13)14/h1H3",OZARLADOWXUKIQ-UHFFFAOYSA-N,tert-perfluorobutyl methyl ether,2.365938494
,,0.769521852,0,0,15,701,1.260737993,0.808215429,0.591185505,C_{10}H_{14}O,"InChI=1S/C10H14O/c1-10(2,11-3)9-7-5-4-6-8-9/h4-8H,1-3H3",MRFQFQYRTNGOCZ-UHFFFAOYSA-N,(1-methoxy-1-methylethyl)benzene,2.954197773
,,0.891228166,0,0,15,657,1.259799906,0.854881505,0.92030462,C_{3}H_{5}ClO_{2},"InChI=1S/C3H5ClO2/c1-2(4)3(5)6/h2H,1H3,(H,5,6)",GAWAYYRQGQZKCR-UHFFFAOYSA-N,2-chloropropanoic acid,4.8363742
,0.463958154,0.911598839,0,1,15,448.9153525,0.156645409,0.847838162,2.5841629,C_{4}H_{12}Si,"InChI=1S/C4H12Si/c1-5(2,3)4/h1-4H3",CZDYPVPMEAXLPK-UHFFFAOYSA-N,tetramethylsilane,2.820267381
,,1.03860332,0,0,15,806,1.416879493,0.945563092,0.855251439,C_{15}H_{14}O_{2},"InChI=1S/C15H14O2/c1-3-7-13(8-4-1)15(16-11-12-17-15)14-9-5-2-6-10-14/h1-10H,11-12H2",HRTCGZZYZFEBHO-UHFFFAOYSA-N,"2,2-diphenyl-1,3-dioxolane",2.455750505
,,1.044304684,0,0,15,553,0.567264272,0.923662252,1.669643439,C_{7}H_{4}F_{4},"InChI=1S/C7H4F4/c8-6-3-1-5(2-4-6)7(9,10)11/h1-4H",UNNNAIWPDLRVRN-UHFFFAOYSA-N,1-fluoro-4-(trifluoromethyl)benzene,3.469839349
,0.001146636,1.094145982,0,1,15,716.5525423,1.188064739,0.899558896,0.82425024,C_{2}H_{5}N_{3}O,"InChI=1S/C2H5N3O/c3-5-4-1-2-6/h6H,1-2H2",BSULWPSUVMOMAN-UHFFFAOYSA-N,2-azidoethanol,18.78374615
,,1.108732392,0,0,15,628.6,0.331746846,0.823466415,2.740000462,C_{9}H_{18}O_{2},"InChI=1S/C9H18O2/c1-3-5-6-7-9(10)11-8-4-2/h3-8H2,1-2H3",HTUIWRWYYVBCFT-UHFFFAOYSA-N,propyl hexanoate,2.304340975
,,1.145460298,0,0,15,510.2,1.696741771,0.87587096,0.435709966,C_{2}H_{4}ClF,InChI=1S/C2H4ClF/c3-1-2-4/h1-2H2,VEZJSKSPVQQGIS-UHFFFAOYSA-N,1-chloro-2-fluoroethane,5.041941258
,,1.20170889,0,0,15,718,0.659208027,0.813393375,1.116895889,C_{11}H_{20},InChI=1S/C11H20/c1-3-7-11(8-4-1)9-5-2-6-10-11/h1-10H2,NECLQTPQJZSWOE-UHFFFAOYSA-N,spiro[5.5]undecane,3.129867209
,,1.245059449,0,0,15,663,0.36301569,0.864767401,2.318053307,C_{10}H_{14},"InChI=1S/C10H14/c1-4-10-6-5-8(2)7-9(10)3/h5-7H,4H2,1-3H3",MEMBJMDZWKVOTB-UHFFFAOYSA-N,"1-ethyl-2,4-dimethylbenzene",2.866182624
,,1.250080513,0,0,15,890,0.259073358,0.761858958,1.996103549,C_{11}H_{14}N_{2},"InChI=1S/C11H14N2/c1-2-3-8-13-9-12-10-6-4-5-7-11(10)13/h4-7,9H,2-3,8H2,1H3",SHPPDRZENGVOOR-UHFFFAOYSA-N,1-butyl-1H-benzimidazole,3.428384295
,0.272363383,1.287763115,0,3,15,711,0.419274902,0.823389885,3.037932322,C_{14}H_{28}O_{2},"InChI=1S/C14H28O2/c1-3-4-5-6-7-8-9-10-11-12-13-14(15)16-2/h3-13H2,1-2H3",JNDDPBOKWCBQSM-UHFFFAOYSA-N,methyl tridecanoate,1.53414965
,,1.300623695,0,0,15,533,0.461542529,0.802152993,1.654264754,C_{5}H_{12}O_{2},"InChI=1S/C5H12O2/c1-3-4-7-5-6-2/h3-5H2,1-2H3",XDEBEEKYERBCBM-UHFFFAOYSA-N,1-(methoxymethoxy)propane,3.257207056
,0.011771975,1.362354134,0,1,15,773,1.368907707,0.998516445,0.69432382,C_{8}H_{14}O_{2},"InChI=1S/C8H14O2/c1-2-4-7-5-3-6-8(9)10-7/h7H,2-6H2,1H3",FYTRVXSHONWYNE-UHFFFAOYSA-N,"2H-pyran-2-one, tetrahydro-6-propyl-",3.253246888
,0.012465879,1.399387596,0,1,15,623,0.975331691,0.999880099,0.804759444,C_{6}H_{10}O,"InChI=1S/C6H10O/c1-2-4-6-5(3-1)7-6/h5-6H,1-4H2",ZWAJLVLEBYIOTI-UHFFFAOYSA-N,7-oxabicyclo[4.1.0]heptane,4.327971596
,,1.416356833,0,0,15,654,0.883631002,0.918596919,1.716291001,C_{8}H_{14}O_{4},"InChI=1S/C8H14O4/c1-3-7(9)11-5-6-12-8(10)4-2/h3-6H2,1-2H3",UMNVUZRZKPVECS-UHFFFAOYSA-N,"1,2-ethanedioldipropanoate",2.635850013
,,1.446870316,0,0,15,780,1.883305188,0.752974684,0.520144628,C_{14}H_{22}O,"InChI=1S/C14H22O/c1-13(2,3)10-7-8-12(15)11(9-10)14(4,5)6/h7-9,15H,1-6H3",ICKWICRCANNIBI-UHFFFAOYSA-N,"2,4-di-tert-butylphenol",3.089212731
,,1.458043824,0,0,15,769,0.901378735,0.902562963,1.874255744,C_{11}H_{15}BrO_{3},"InChI=1S/C11H15BrO3/c1-13-6-7-14-8-9-15-11-5-3-2-4-10(11)12/h2-5H,6-9H2,1H3",DRXYAKQXGFANKR-UHFFFAOYSA-N,1-bromo-2-(2-(2-methoxyethoxy)ethoxy)benzene,2.224153618
,,1.460271692,0,0,15,635,1.097403301,0.964333759,0.765318747,C_{7}H_{9}N,"InChI=1S/C7H9N/c1-2-7-5-3-4-6-8-7/h3-6H,2H2,1H3",NRGGMCIBEHEAIL-UHFFFAOYSA-N,2-ethylpyridine,3.898462481
,,1.509947517,0,0,15,665,0.871528326,0.9038784,0.948397311,C_{7}H_{9}N,"InChI=1S/C7H9N/c1-2-7-3-5-8-6-4-7/h3-6H,2H2,1H3",VJXRKZJMGVSXPX-UHFFFAOYSA-N,.gamma.-ethylpyridine,4.057154336
,,1.557371306,0,0,15,475.74,0.17350482,0.807664084,3.353796756,C_{5}H_{3}F_{9}O,"InChI=1S/C5H3F9O/c6-2(4(10,11)12)5(13,14)15-1-3(7,8)9/h2H,1H2",LMRGTZDDPWGCGL-UHFFFAOYSA-N,"1,1,1,2,3,3-hexafluoro-3-(2,2,2-trifluoroethoxy)propane",2.232995012
,,1.567643114,0,0,15,605,0.497858297,0.822091907,1.533920117,C_{7}H_{4}ClF_{3},"InChI=1S/C7H4ClF3/c8-6-3-1-5(2-4-6)7(9,10)11/h1-4H",QULYNCCPRWKEMF-UHFFFAOYSA-N,1-chloro-4-(trifluoromethyl)benzene,3.234861907
,,1.610474858,0,0,15,541.8,0.812992088,0.999654505,1.000309681,C_{7}H_{14},"InChI=1S/C7H14/c1-4-5-6-7(2)3/h2,4-6H2,1,3H3",IRUDSQHLKGNCGF-UHFFFAOYSA-N,2-methyl-1-hexene,2.901673552
,,1.735537548,0,0,15,685,0.71800595,0.87519379,2.189124933,C_{12}H_{24}O_{2},"InChI=1S/C12H24O2/c1-2-3-4-5-6-7-8-9-10-11-14-12-13/h12H,2-11H2,1H3",OASFNORBKVGDRW-UHFFFAOYSA-N,"1-undecanol, formate",2.435607811
,,1.856283365,0,0,15,534.65,0,0.249231936,0.757743055,C_{4}H_{8}O_{2},"InChI=1S/C4H8O2/c1-4(2)6-3-5/h3-4H,1-2H3",RMOUBSOVHSONPZ-UHFFFAOYSA-N,1-methylethyl methanoate,3.945237279
,,1.90128205,0,0,15,602,0.612368369,0.824767871,1.416356645,C_{4}H_{8}O_{3},"InChI=1S/C4H8O3/c1-5-4-6-2-3-7-4/h4H,2-3H2,1H3",VRAYTNFBRROPJU-UHFFFAOYSA-N,"2-methoxy-1,3-dioxolane",4.738370839
,,1.908412126,0,0,15,752,0.762567249,0.839796326,1.908393369,C_{16}H_{28}O_{4},"InChI=1S/C16H28O4/c1-11(2)9-19-15(17)13-7-5-6-8-14(13)16(18)20-10-12(3)4/h11-14H,5-10H2,1-4H3",QUKHPBOCBWDYMW-UHFFFAOYSA-N,diisobutyl hexahydrophthalate,1.548051065
,0.012051104,1.93058858,0,1,15,790,0.41476178,0.846822611,2.600234121,C_{10}H_{18}O_{2},"InChI=1S/C10H18O2/c1-2-3-4-6-9-7-5-8-10(11)12-9/h9H,2-8H2,1H3",GHBSPIPJMLAMEP-UHFFFAOYSA-N,"2H-pyran-2-one, tetrahydro-6-pentyl-",2.619136217
,,1.984163791,0,0,15,652,0.549144775,0.872305543,2.22616574,C_{10}H_{18}O,"InChI=1S/C10H18O/c1-9(2)5-4-6-10(3)7-8-11/h5,8,10H,4,6-7H2,1-3H3",NEHNMFOYXAPHSD-UHFFFAOYSA-N,"3,7-dimethyl-6-octenal",2.535113795
,0.007508648,2.089553622,0,1,15,612,0.616358224,0.864465423,2.332690956,C_{8}H_{18}O_{3},"InChI=1S/C8H18O3/c1-3-9-5-7-11-8-6-10-4-2/h3-8H2,1-2H3",RRQYJINTUHWNHW-UHFFFAOYSA-N,diethylene glycol diethyl ether,2.396929867
,,2.091123107,0,0,15,838,1.644513093,0.614638409,0.511548409,C_{10}H_{18}N_{2},"InChI=1S/C10H18N2/c1-3-4-5-6-8-12-9-7-11-10(12)2/h7,9H,3-6,8H2,1-2H3",YFSQYUBYYKHCQV-UHFFFAOYSA-N,1-hexyl-2-methyl-1H-imidazole,3.306968779
,,2.172793179,0,0,15,731,0.924331234,0.61867137,1.248537064,C_{14}H_{30}O,"InChI=1S/C14H30O/c1-3-4-5-6-7-8-9-10-11-12-13-14(2)15/h14-15H,3-13H2,1-2H3",BRGJIIMZXMWMCC-UHFFFAOYSA-N,2-tetradecanol,1.629191032
,,2.188233913,0,0,15,662,1.585917921,0.921563995,0.570377397,C_{11}H_{16}O,"InChI=1S/C11H16O/c1-9(2)12-10(3)11-7-5-4-6-8-11/h4-10H,1-3H3",KLOUCDOOJZGJFJ-UHFFFAOYSA-N,(1-isopropoxyethyl)benzene,2.454900071
,,2.19553819,0,0,15,784,1.348632819,0.999730887,0.67154667,C_{12}H_{12},"InChI=1S/C12H12/c1-9-5-3-8-12-10(2)6-4-7-11(9)12/h3-8H,1-2H3",SDDBCEWUYXVGCQ-UHFFFAOYSA-N,"1,5-dimethylnaphthalene",2.98346196
,,2.281134543,0,0,15,718,0.880483718,0.891620498,1.992427217,C_{8}H_{8}O_{2},"InChI=1S/C8H8O2/c9-8(10)6-7-4-2-1-3-5-7/h1-5H,6H2,(H,9,10)",WLJVXDMOQOGPHL-UHFFFAOYSA-N,phenylacetic acid,3.95043174
,,2.309211651,0,0,15,821,0.086974828,0.003248621,0.528081665,C_{7}H_{12}N_{2},"InChI=1S/C7H12N2/c1-3-7(2)9-5-4-8-6-9/h4-7H,3H2,1-2H3",GYKNBGLKLKMMJO-UHFFFAOYSA-N,N-sec-butylimidazole,4.443070139
,,2.384806625,0,0,15,705.2,1.31465688,0.999985294,0.979574883,C_{6}H_{14}O_{3},"InChI=1S/C6H14O3/c7-3-1-5-9-6-2-4-8/h7-8H,1-6H2",SZXQTJUDPRGNJN-UHFFFAOYSA-N,"4-oxa-1,7-heptanediol",3.355900971
,,2.565490239,0,0,15,887,2.025243669,0.652654146,0.431587723,C_{10}H_{12}N_{2},"InChI=1S/C10H12N2/c1-2-7-12-8-11-9-5-3-4-6-10(9)12/h3-6,8H,2,7H2,1H3",LZUVIELFLONRSS-UHFFFAOYSA-N,1-propyl-1H-benzimidazole,4.040975545
,,2.565649706,0,0,15,639.4,1.00136347,0.983692652,1.088925993,C_{5}H_{9}NO,"InChI=1S/C5H9NO/c1-3-7-5(2)4-6/h5H,3H2,1-2H3",SNJNVEVAILOJBB-UHFFFAOYSA-N,"propanenitrile, 2-ethoxy-",3.274820545
,,2.56742424,0,0,15,729,1.169871019,0.999997759,0.914142071,C_{9}H_{12}O,"InChI=1S/C9H12O/c1-7(2)8-4-3-5-9(10)6-8/h3-7,10H,1-2H3",VLJSLTNSFSOYQR-UHFFFAOYSA-N,3-(1-methylethyl)phenol,3.850171619
,0.352957883,2.599786649,0,15,15,644,0.469147243,0.843253463,2.660615713,C_{10}H_{18}O_{4},"InChI=1S/C10H18O4/c1-9(2,3)13-7(11)8(12)14-10(4,5)6/h1-6H3",CIYGMWIAXRMHQS-UHFFFAOYSA-N,di-tert-butyl oxalate,1.974994316
,,2.641932006,0,0,15,710,1.256686988,0.999846883,0.679384964,C_{8}H_{9}Br,"InChI=1S/C8H9Br/c1-6-4-3-5-7(2)8(6)9/h3-5H,1-2H3",MYMYVYZLMUEVED-UHFFFAOYSA-N,"2-bromo-1,3-dimethylbenzene",3.327920095
,,3.047668807,0,0,15,764,0.190085611,0.241328463,1.044788038,C_{13}H_{20}O,"InChI=1S/C13H20O/c1-11(2)7-5-8-12(3)9-6-10-13(4)14/h6-7,9-10H,5,8H2,1-4H3/b10-6+,12-9+",JXJIQCXXJGRKRJ-KOOBJXAQSA-N,"6,10-dimethyl-3,5,9-undecatrien-2-one",1.962000025
,,3.074380737,0,0,15,749,0.451997786,0.860179912,1.993885765,C_{6}H_{4}ClNO_{2},InChI=1S/C6H4ClNO2/c7-5-1-3-6(4-2-5)8(9)10/h1-4H,CZGCEKJOLUNIFY-UHFFFAOYSA-N,1-chloro-4-nitrobenzene,3.667931212
,,3.089185926,0,0,15,795.9,0.547886804,0.808750061,3.374316346,C_{30}H_{62},"InChI=1S/C30H62/c1-25(2)15-11-19-29(7)23-13-21-27(5)17-9-10-18-28(6)22-14-24-30(8)20-12-16-26(3)4/h25-30H,9-24H2,1-8H3",PRAKJMSDJKAYCZ-UHFFFAOYSA-N,"2,6,10,15,19,23-hexamethyltetracosane",0.587888681
,,3.089793211,0,0,15,709,0.45512591,0.782499667,1.420859612,C_{8}H_{14}O,InChI=1S/C8H14O/c9-8-6-4-2-1-3-5-7-8/h1-7H2,IIRFCWANHMSDCG-UHFFFAOYSA-N,cyclooctanone,3.556516001
,0.218455227,3.144305691,0,1,15,691,0.233784438,0.869290805,2.26596855,C_{7}H_{10}S,"InChI=1S/C7H10S/c1-2-4-7-5-3-6-8-7/h3,5-6H,2,4H2,1H3",BTXIJTYYMLCUHI-UHFFFAOYSA-N,2-propylthiophene,4.080327959
,0.010095282,3.614682129,0,1,15,652,0.302322429,0.835530226,2.217121805,C_{6}H_{12}Cl_{2},"InChI=1S/C6H12Cl2/c1-2-3-4-6(8)5-7/h6H,2-5H2,1H3",ZHFXSKJYCSWRJA-UHFFFAOYSA-N,"1,2-dichlorohexane",2.981113941
,,4.116389663,0,0,15,600,0.549578721,0.753046161,1.666399334,C_{7}H_{16}O,"InChI=1S/C7H16O/c1-4-6-7(3,8)5-2/h8H,4-6H2,1-3H3",KYWJZCSJMOILIZ-UHFFFAOYSA-N,3-methyl-3-hexanol,4.339174488
,0.704559873,4.131611978,0,5,15,563,0.315605399,0.847710985,2.586286943,C_{7}H_{17}N,"InChI=1S/C7H17N/c1-4-5-6-8-7(2)3/h7-8H,4-6H2,1-3H3",OKRJGUKZYSEUOY-UHFFFAOYSA-N,"1-butanamine, N-(1-methylethyl)-",2.908160375
,,4.226575337,0,0,15,795,0.756903186,0.852585152,1.625665255,C_{7}H_{10}N_{2},"InChI=1S/C7H10N2/c1-5-2-3-6(8)4-7(5)9/h2-4H,8-9H2,1H3",VOZKAJLKRJDJLL-UHFFFAOYSA-N,"4-methyl-1,3-benzendiamine",4.499596205
,0.233782379,4.6178642,0,1,15,616,1.340552563,0.999950678,0.709795104,C_{7}H_{12}O_{2},"InChI=1S/C7H12O2/c1-6(8)9-7-4-2-3-5-7/h7H,2-5H2,1H3",YFPCLQKFNXUAAK-UHFFFAOYSA-N,cyclopentyl ethanoate,3.350289579
,0.030862832,4.676812454,0,1,15,742,0.549864102,0.824650247,3.011564336,C_{18}H_{28}O_{2},"InChI=1S/C18H28O2/c1-6-13-20-18(19)14-17(5)12-8-11-16(4)10-7-9-15(2)3/h1,8,12,14-16H,7,9-11,13H2,2-5H3/b12-8+,17-14+",FZRBKIRIBLNOAM-WHVZTFIZSA-N,"prop-2-ynyl (2E,4E)-3,7,11-trimethyldodeca-2,4-dienoate",1.375322052
,,5.266302311,0,0,15,491.0447692,0,0.342325437,1.370591778,O_{3}S,InChI=1S/O3S/c1-4(2)3,AKEJUJNQAAGONA-UHFFFAOYSA-N,sulfur trioxide,8.793509231
,0.066705833,5.405056203,0,1,15,676,0.443185664,0.838961614,2.735749389,C_{10}H_{19}N,"InChI=1S/C10H19N/c1-2-3-4-5-6-7-8-9-10-11/h2-9H2,1H3",HBZDPWBWBJMYRY-UHFFFAOYSA-N,1-decanenitrile,2.172456933
,,5.464422976,0,0,15,804,2.512559758,0.99484088,0.619993115,C_{27}H_{56},"InChI=1S/C27H56/c1-5-9-12-15-17-20-23-26-27(8-4,24-21-18-14-11-7-3)25-22-19-16-13-10-6-2/h5-26H2,1-4H3",LRJHOBBNMAGOIG-UHFFFAOYSA-N,9-ethyl-9-heptyloctadecane,0.74622081
0.833589993,3.820138767,5.726871665,51,3,15,639,1.357214124,0.999989228,0.513642067,C_{5}H_{10}S,"InChI=1S/C5H10S/c6-5-3-1-2-4-5/h5-6H,1-4H2",WVDYBOADDMMFIY-UHFFFAOYSA-N,cyclopentanethiol,4.801156557
,,6.814353209,0,0,15,839,0.846681585,0.87108154,2.242519339,C_{26}H_{50},"InChI=1S/C26H50/c1-2-3-4-5-6-7-8-9-10-11-12-13-14-15-19-25-20-18-23-26(24-25)21-16-17-22-26/h25H,2-24H2,1H3",BNDDTWKJQMCKBA-UHFFFAOYSA-N,7-hexadecylspiro[4.5]decane,1.11774219
,,6.91461644,0,0,15,758.3,0.793973869,0.895132413,1.953403231,C_{16}H_{35}N,"InChI=1S/C16H35N/c1-2-3-4-5-6-7-8-9-10-11-12-13-14-15-16-17/h2-17H2,1H3",FJLUATLTXUNBOT-UHFFFAOYSA-N,1-hexadecanamine,1.430234893
,,7.293552847,0,0,15,588.2,0.475390029,0.923450723,1.668599577,C_{8}H_{16},"InChI=1S/C8H16/c1-7-3-5-8(2)6-4-7/h7-8H,3-6H2,1-2H3",QRMPKOFEUHIBNM-UHFFFAOYSA-N,"1,4-dimethylcyclohexane",3.030347305
,,7.386666282,0,0,15,626.5,1.223197618,0.630982898,0.916205432,C_{8}H_{18}O,"InChI=1S/C8H18O/c1-3-5-7-8(9)6-4-2/h8-9H,3-7H2,1-2H3/t8-/m0/s1",WOFPPJOZXUTRAU-QMMMGPOBSA-N,(S)-4-octanol,2.811361047
,,7.924382593,0,0,15,694,1.825549234,0.998704284,0.585090877,C_{11}H_{22}O,"InChI=1S/C11H22O/c1-2-3-4-5-6-7-8-9-10-11-12/h11H,2-10H2,1H3",KMPQYAYAQWNLME-UHFFFAOYSA-N,undecanal,2.162920658
,,8.183803773,0,0,15,629,0.14196135,0.806978265,3.418911974,C_{6}H_{10}O_{3},"InChI=1S/C6H10O3/c1-3-5(7)9-6(8)4-2/h3-4H2,1-2H3",WYVAMUWZEOHJOQ-UHFFFAOYSA-N,propanoic anhydride,3.342500975
,,8.32229655,0,0,15,709,2.008533021,0.920437837,0.589813862,C_{6}H_{14}O_{2},"InChI=1S/C6H14O2/c1-2-3-4-6(8)5-7/h6-8H,2-5H2,1H3",FHKSXSQHXQEMOK-UHFFFAOYSA-N,"1,2-hexanediol",3.758676577
,,8.671498015,0,0,15,772,0.196729236,0.821288515,3.080837032,C_{13}H_{14},"InChI=1S/C13H14/c1-2-6-11-8-5-9-12-7-3-4-10-13(11)12/h3-5,7-10H,2,6H2,1H3",HMAMGXMFMCAOPV-UHFFFAOYSA-N,1-propylnaphthalene,2.741117279
,,9.703638229,0,0,15,604.1,0.509825514,0.913609633,1.763722824,C_{7}H_{14}O,"InChI=1S/C7H14O/c1-6(2)4-5-7(3)8/h6H,4-5H2,1-3H3",FFWSICBKRCICMR-UHFFFAOYSA-N,5-methyl-2-hexanone,3.024007328
,,10.58257103,0,0,15,624,2.115478103,0.763681146,0.548113431,C_{8}H_{18}O,"InChI=1S/C8H18O/c1-7(2)5-4-6-8(3)9/h7-9H,4-6H2,1-3H3",FCOUHTHQYOMLJT-UHFFFAOYSA-N,6-methyl-2-heptanol,2.663306694
,,11.13768252,0,0,15,658,0.150873881,0.659856161,2.080925162,C_{11}H_{16},"InChI=1S/C11H16/c1-3-10(4-2)11-8-6-5-7-9-11/h5-10H,3-4H2,1-2H3",PBWHJRFXUPLZDS-UHFFFAOYSA-N,(1-ethylpropyl)benzene,3.074388672
,,13.06868191,0,0,15,595,0,0.256851822,0.637170198,C_{5}H_{11}Br,"InChI=1S/C5H11Br/c1-2-3-4-5-6/h2-5H2,1H3",YZWKKMVJZFACSU-UHFFFAOYSA-N,1-bromopentane,2.130825696
,,13.88580903,0,0,15,575,0.164089514,0.801714996,3.547230266,C_{7}H_{16}O,"InChI=1S/C7H16O/c1-5-6(2)7(3,4)8/h6,8H,5H2,1-4H3",YRSIFCHKXFKNME-UHFFFAOYSA-N,"2,3-dimethyl-2-pentanol",3.152623873
,,16.15916999,0,0,15,753.7,0.786137586,0.904323006,1.85580599,C_{15}H_{33}N,"InChI=1S/C15H33N/c1-2-3-4-5-6-7-8-9-10-11-12-13-14-15-16/h2-16H2,1H3",JPZYXGPCHFZBHO-UHFFFAOYSA-N,1-aminopentadecane,1.512343498
,,17.71986668,0,0,15,893.9049727,0.575991887,0.825797625,1.844616561,C_{12}H_{8}N_{2},InChI=1S/C12H8N2/c1-3-9-10-4-2-8-14-12(10)6-5-11(9)13-7-1/h1-8H,DATYUTWESAKQQM-UHFFFAOYSA-N,"4,7-phenanthroline",6.237252438
,,18.31467152,0,0,15,728,0.012650585,0.003002287,0.975336494,C_{13}H_{26}O,"InChI=1S/C13H26O/c1-2-3-4-5-6-7-8-9-10-11-12-13-14/h13H,2-12H2,1H3",BGEHHAVMRVXCGR-UHFFFAOYSA-N,n-tridecylaldehyde,1.831741463
,,21.20456979,0,0,15,623,0,0.143152133,1.060260794,C_{8}H_{18}O,"InChI=1S/C8H18O/c1-4-5-6-8(9)7(2)3/h7-9H,4-6H2,1-3H3",QGVFLDUEHSIZIG-UHFFFAOYSA-N,2-methyl-3-heptanol,2.682184414
,9.07285E-05,0.019168473,0,1,14,526,0.364682673,0.811714395,1.573812783,C_{2}HCl_{3}F_{2},"InChI=1S/C2HCl3F2/c3-1(4)2(5,6)7/h1H",FQAMAOOEZDRHHB-UHFFFAOYSA-N,"1,2,2-trichloro-1,1-difluoroethane",3.781723967
,,0.039946848,0,0,14,738,0.449565036,0.819094588,1.873320786,C_{7}H_{10}N_{2},"InChI=1S/C7H10N2/c1-9(8)7-5-3-2-4-6-7/h2-6H,8H2,1H3",MWOODERJGVWYJE-UHFFFAOYSA-N,1-methyl-1-phenylhydrazine,4.078046932
,,0.057129629,0,0,14,619,0.810103188,0.890280512,0.978404719,C_{6}H_{6},InChI=1S/C6H6/c1-3-5-6-4-2/h1-2H3,PCTCNWZFDASPLA-UHFFFAOYSA-N,"2,4-hexadiyne",4.647274498
,,0.073989175,0,0,14,679,0.214300605,0.823937776,3.026288962,C_{8}H_{16}Cl_{2},"InChI=1S/C8H16Cl2/c1-2-3-4-5-6-7-8(9)10/h8H,2-7H2,1H3",OQYNFBPKTVQOKO-UHFFFAOYSA-N,"1,1-dichlorooctane",2.445468336
,,0.078539079,0,0,14,831,0.340927677,0.85094985,2.534071982,C_{10}H_{8}N_{2},InChI=1S/C10H8N2/c1-5-11-6-2-9(1)10-3-7-12-8-4-10/h1-8H,MWVTWFVJZLCBMC-UHFFFAOYSA-N,".gamma.,.gamma.'-bipyridyl",4.457311467
,,0.19988965,0,0,14,653,1.373709065,0.99959252,0.572565843,C_{5}H_{12}S_{2},"InChI=1S/C5H12S2/c1-4-6-7-5(2)3/h5H,4H2,1-3H3",PUUCPZKSTXFGOC-UHFFFAOYSA-N,2-(ethyldithio)propane,3.250085381
,0.015521021,0.29129153,0,3,14,541.5,0.147485433,0.846693683,2.602875909,C_{3}H_{5}Br,"InChI=1S/C3H5Br/c1-2-3-4/h2H,1,3H2",BHELZAPQIKSEDF-UHFFFAOYSA-N,3-bromo-1-propene,4.84035702