AAD_Csat,AAD_hfg,AAD_psat,N_Csat,N_hfg,N_psat,Tc_K,c0,c1,c2,formula,inchi,inchikey,name,pc_MPa
0.178605928,0.993653449,4.355721479,50,14,126,624.45855,1.157847245,0.912226732,0.631803482,C_{5}H_{8}O,InChI=1S/C5H8O/c6-5-3-1-2-4-5/h1-4H2,BGTOWKSIORTVQH-UHFFFAOYSA-N,cyclopentanone,4.566134632
,0.409009661,1.496752812,0,1,125,613.1,1.410003593,0.999600408,0.59010712,C_{2}H_{8}N_{2},InChI=1S/C2H8N2/c3-1-2-4/h1-4H2,PIICEJLVQHRZGT-UHFFFAOYSA-N,"ethane-1,2-diamine",6.706930234
,,2.304067324,0,0,125,401.4387235,0.901537331,0.999692303,0.782571862,C_{3}H_{4},"InChI=1S/C3H4/c1-3-2/h1H,2H3",MWWATHDPGQKSAR-UHFFFAOYSA-N,1-propyne,5.625312829
0.950335757,0.147093009,4.994081131,49,11,125,504.5485143,0.876553821,0.857495907,0.793956957,C_{6}H_{14},"InChI=1S/C6H14/c1-4-6(3)5-2/h6H,4-5H2,1-3H3",PFEOZHBOMNWTJB-UHFFFAOYSA-N,3-methylpentane,3.123559845
,1.081658711,1.646276917,0,1,124,586.1,0.281470321,0.833089435,2.753319866,C_{7}H_{14}O_{2},"InChI=1S/C7H14O2/c1-6(2)4-5-9-7(3)8/h6H,4-5H2,1-3H3",MLFHJEHSLIIPHL-UHFFFAOYSA-N,3-methylbutyl ethanoate,2.760170426
,,20.67016418,0,0,124,777.7848277,0.539007299,0.82350402,2.769203595,C_{21}H_{44},"InChI=1S/C21H44/c1-3-5-7-9-11-13-15-17-19-21-20-18-16-14-12-10-8-6-4-2/h3-21H2,1-2H3",FNAZRRHPUDJQCJ-UHFFFAOYSA-N,heneicosane,1.029903819
3.204283129,13.42899967,70.52322624,200,3,124,687.2226839,1.833500424,0.999937812,0.871616085,C_{10}H_{22}O,"InChI=1S/C10H22O/c1-2-3-4-5-6-7-8-9-10-11/h11H,2-10H2,1H3",MWKFXSUHUHTGQN-UHFFFAOYSA-N,decan-1-ol,2.326215314
1.911832595,1.49956961,3.627943196,6,5,123,584.061,0.274005184,0.840703234,2.704924656,C_{8}H_{18}O,"InChI=1S/C8H18O/c1-3-5-7-9-8-6-4-2/h3-8H2,1-2H3",DURPTKYDGMDSBL-UHFFFAOYSA-N,dibutyl ether,2.308338841
0.15201995,1.291767764,1.072831062,44,1,122,570,0.444794329,0.820239306,1.273824089,C_{2}HCl_{3},InChI=1S/C2HCl3/c3-1-2(4)5/h1H,XSTXAVWGXDQKEL-UHFFFAOYSA-N,trichloroethene,5.000164266
0.532872617,0.334845612,2.290259067,57,3,122,470.35188,0.294360361,0.835014708,1.890129115,C_{5}H_{10},"InChI=1S/C5H10/c1-4-5(2)3/h4H,1-3H3",BKOOMYPCSUNDGP-UHFFFAOYSA-N,2-methyl-2-butene,3.41062923
,,12.61219415,0,0,122,558,0.552124468,0.918725439,1.715131669,C_{4}H_{12}O_{4}Si,"InChI=1S/C4H12O4Si/c1-5-9(6-2,7-3)8-4/h1-4H3",LFQCEHFDDXELDD-UHFFFAOYSA-N,silicon tetramethoxide,2.834745425
,4.167474266,23.82558247,0,1,122,693.7102588,2.040405078,0.001380875,1.093314635,C_{8}H_{16}O_{2},"InChI=1S/C8H16O2/c1-2-3-4-5-6-7-8(9)10/h2-7H2,1H3,(H,9,10)",WWZKQHOCKIZLMA-UHFFFAOYSA-N,octanoic acid,2.858497424
,,0.17856194,0,0,121,382.51,0.367166881,0.819965353,1.71038696,C_{3}H_{2}F_{4},"InChI=1S/C3H2F4/c4-2-1-3(5,6)7/h1-2H/b2-1+",CDOOAUSHHFGWSA-OWOJBTEDSA-N,"trans-1,3,3,3-tetrafluoropropene",3.632359533
0.254276466,0.616325845,0.661409134,43,3,121,579.434625,0.77707614,0.820406755,0.756358346,C_{4}H_{4}S,InChI=1S/C4H4S/c1-2-4-5-3-1/h1-4H,YTPLMLYBLZKORZ-UHFFFAOYSA-N,thiophene,5.682679824
0.148016732,0.685561932,1.950094562,24,8,121,489.0740326,0.862276811,0.865822469,0.762370394,C_{6}H_{14},"InChI=1S/C6H14/c1-5-6(2,3)4/h5H2,1-4H3",HNRMPXKDFBEGFZ-UHFFFAOYSA-N,"2,2-dimethylbutane",3.102636707
0.678947276,1.481590468,5.514848174,65,8,121,684.84902,0.493742658,0.830976358,1.411265383,C_{9}H_{10},"InChI=1S/C9H10/c1-2-5-9-7-3-6-8(9)4-1/h1-2,4-5H,3,6-7H2",PQNFLJBBNBOBRQ-UHFFFAOYSA-N,indane,3.985183303
0.433359867,0.452553505,1.222898137,90,4,120,511.7405846,0.93856879,0.909443521,0.662595698,C_{5}H_{10},InChI=1S/C5H10/c1-2-4-5-3-1/h1-5H2,RGSFGYAAUTVSQA-UHFFFAOYSA-N,cyclopentane,4.515053817
,0.645911762,1.288393159,0,2,120,533.5,0.90542291,0.999994266,0.885263466,C_{6}H_{10},"InChI=1S/C6H10/c1-3-5-6-4-2/h1H,4-6H2,2H3",CGHIBGNXEGJPQZ-UHFFFAOYSA-N,1-hexyne,4.638285441
,,3.519065369,0,0,120,415.91581,0.539726062,0.951774738,1.328544149,ClF_{5},"InChI=1S/ClF5/c2-1(3,4,5)6",KNSWNNXPAWSACI-UHFFFAOYSA-N,chlorine fluoride (ClF5),5.298277684
,,10.60584134,0,0,120,824,0.115351335,0.821916359,3.066420374,C_{12}H_{8}O,InChI=1S/C12H8O/c1-3-7-11-9(5-1)10-6-2-4-8-12(10)13-11/h1-8H,TXCDCPKCNAJMEE-UHFFFAOYSA-N,dibenzo[bd]furan,3.44711119
4.002080208,0.738222374,7.258836669,272,6,118,762.7,0.873413559,0.900779079,1.060877681,C_{4}H_{6}O_{3},"InChI=1S/C4H6O3/c1-3-2-6-4(5)7-3/h3H,2H2,1H3",RUOJZAUFBMNUDX-UHFFFAOYSA-N,"4-methyl-1,3-dioxolan-2-one",4.096151996
,,14.72872047,0,0,118,587,0.711668915,0.908548954,1.813034722,C_{8}H_{20}O_{4}Si,"InChI=1S/C8H20O4Si/c1-5-9-13(10-6-2,11-7-3)12-8-4/h5-8H2,1-4H3",BOTDANWDWHJENH-UHFFFAOYSA-N,tetraethoxysilane,2.042230336
0.257100351,0.19371813,1.108863226,26,12,117,471.1708344,0.744477599,0.862185092,0.791574576,CCl_{3}F,"InChI=1S/CCl3F/c2-1(3,4)5",CYRMSUTZVYGINF-UHFFFAOYSA-N,trichlorofluoromethane,4.394497676
0.367453176,1.479588324,1.696653025,7,1,117,649.1158134,0.539565681,0.824503078,1.445368074,C_{9}H_{12},"InChI=1S/C9H12/c1-7-4-5-8(2)9(3)6-7/h4-6H,1-3H3",GWHJZXXIDMPWGX-UHFFFAOYSA-N,"1,2,4-trimethylbenzene",3.260774989
0.300044218,,0.737474512,10,0,116,410.3093695,0.2191345,0.838954605,2.077554592,C_{2}H_{3}ClF_{2},"InChI=1S/C2H3ClF2/c1-2(3,4)5/h1H3",BHNZEZWIUMJCGF-UHFFFAOYSA-N,"1-chloro-1,1-difluoroethane",4.053147344
,0.3525479,1.206674007,0,6,116,646.1,0.358072226,0.82059719,1.835171143,C_{7}H_{8}O,"InChI=1S/C7H8O/c1-8-7-5-3-2-4-6-7/h2-6H,1H3",RDOXTESZEPMUJZ-UHFFFAOYSA-N,anisole,4.208519793
,0.370098067,2.528896816,0,1,115,559.561,2.426443173,0.606751006,0.528278802,C_{5}H_{12}O,"InChI=1S/C5H12O/c1-3-5(6)4-2/h5-6H,3-4H2,1-2H3",AQIXEPGDORPWBJ-UHFFFAOYSA-N,3-pentanol,3.710820249
,0.365151864,2.541562624,0,8,115,553.1,0.201712121,0.843880399,2.650121351,C_{5}H_{10}O,"InChI=1S/C5H10O/c1-4(2)5(3)6/h4H,1-3H3",SYBYTAAJFKOIEJ-UHFFFAOYSA-N,3-methyl-2-butanone,3.797724747
1.234558707,2.196298907,3.228500248,37,5,115,552.1798,0.502860044,0.879138601,0.92409822,CS_{2},InChI=1S/CS2/c2-1-3,QGJOPFRUJISHPQ-UHFFFAOYSA-N,carbon disulfide,8.164226599
,0.754488505,7.542385822,0,1,114,747.5,0.949112655,0.884078213,2.079502131,C_{19}H_{38}O_{2},"InChI=1S/C19H38O2/c1-3-4-5-6-7-8-9-10-11-12-13-14-15-16-17-18-19(20)21-2/h3-18H2,1-2H3",HPEUJPJOZXNMSJ-UHFFFAOYSA-N,methyl octadecanoate,1.096053522
,0.776194117,8.646704476,0,2,114,724.2550876,1.494136455,0.999969543,0.887908941,C_{4}H_{10}O_{2},"InChI=1S/C4H10O2/c5-3-1-2-4-6/h5-6H,1-4H2",WERYXYBDKMZEQL-UHFFFAOYSA-N,"1,4-butanediol",5.687157919
0.632341125,0.47764471,2.129548781,91,7,113,435.7249609,0.863224681,0.869469821,0.716432941,C_{4}H_{8},"InChI=1S/C4H8/c1-3-4-2/h3-4H,1-2H3/b4-3-",IAQRGUVFOMOMEM-ARJAWSKDSA-N,(Z)-2-butene,4.227701614
,,2.90226731,0,0,113,632.3853525,0.261508327,0.795209485,3.737434456,C_{6}H_{12}O_{2},"InChI=1S/C6H12O2/c1-5(2)3-4-6(7)8/h5H,3-4H2,1-2H3,(H,7,8)",FGKJLKRYENPLQH-UHFFFAOYSA-N,4-methylpentanoic acid,2.744050486
,0.752405139,5.048144063,0,4,113,712.1654,0.707038323,0.797778374,1.696790818,C_{13}H_{26}O_{2},"InChI=1S/C13H26O2/c1-3-4-5-6-7-8-9-10-11-12-13(14)15-2/h3-12H2,1-2H3",UQDUPQYQJKYHQI-UHFFFAOYSA-N,methyl dodecanoate,1.800112252
,,1.290078929,0,0,112,706,0.916874526,0.856376635,1.162503006,C_{15}H_{24},"InChI=1S/C15H24/c1-11-8-12(14(2,3)4)10-13(9-11)15(5,6)7/h8-10H,1-7H3",WIXDSJRJFDWTNY-UHFFFAOYSA-N,"3,5-di-tert-butyltoluene",2.353645975
17.57568069,18.64129049,22.53862804,15,1,112,464.1066146,1.430505554,0.999404492,0.60624557,C_{2}H_{4}O,"InChI=1S/C2H4O/c1-2-3/h2H,1H3",IKHGUXGNUITLKF-UHFFFAOYSA-N,ethanal,6.008106541
,0.035211108,0.125668546,0,1,111,289.7481484,0.095519765,0.891991259,1.987935017,Xe,InChI=1S/Xe,FHNFHKCVQCLJFQ-UHFFFAOYSA-N,xenon,5.83633276
,,1.090966344,0,0,111,709.5,0.211167319,0.83662489,2.77756659,C_{8}H_{8}O,"InChI=1S/C8H8O/c1-7(9)8-5-3-2-4-6-8/h2-6H,1H3",KWOLFJPFCHCOCG-UHFFFAOYSA-N,acetophenone,4.017069791
0.444826875,,1.619866683,9,0,111,721,0.299625321,0.836778506,1.839529593,C_{6}H_{5}I,InChI=1S/C6H5I/c7-6-4-2-1-3-5-6/h1-5H,SNHMUERNLJLMHN-UHFFFAOYSA-N,iodobenzene,4.680951789
0.24828681,,6.892339689,38,0,111,709.1666,0.696546594,0.777569582,1.221134215,C_{7}H_{9}N,"InChI=1S/C7H9N/c1-6-3-2-4-7(8)5-6/h2-5H,8H2,1H3",JJYPMNFTHPTTDI-UHFFFAOYSA-N,3-methylaniline,4.776334929
0.456560413,0.546460856,1.774557246,46,7,110,644.8179648,0.407156678,0.814347134,1.505652696,C_{6}H_{7}N,"InChI=1S/C6H7N/c1-6-3-2-4-7-5-6/h2-5H,1H3",ITQTTZVARXURQS-UHFFFAOYSA-N,3-methylpyridine,4.623798612
,,3.753260632,0,0,110,651.15,0.312915308,0.807870413,2.024735616,C_{10}H_{14},"InChI=1S/C10H14/c1-8(2)10-6-4-9(3)5-7-10/h4-8H,1-3H3",HFPZCAJZSCWRBC-UHFFFAOYSA-N,1-(1-methylethyl)-4-methylbenzene,2.805359506
,,0.755297071,0,0,109,652.5,1.16482309,0.987594521,0.73798108,C_{10}H_{14},"InChI=1S/C10H14/c1-3-9(2)10-7-5-4-6-8-10/h4-9H,3H2,1-2H3",ZJMWRROPUADPEA-UHFFFAOYSA-N,(1-methylpropyl)benzene,2.950362478
,0.2916556,1.133841864,0,3,109,652.1341463,0.370356117,0.814449973,2.276602724,C_{9}H_{18}O,"InChI=1S/C9H18O/c1-3-4-5-6-7-8-9(2)10/h3-8H2,1-2H3",VKCYHJWLYTUGCC-UHFFFAOYSA-N,2-nonanone,2.483243336
,,1.889422604,0,0,109,508.06,0.90795535,0.999988303,0.784375763,Cl_{4}Si,"InChI=1S/Cl4Si/c1-5(2,3)4",FDNAPBUWERUEDA-UHFFFAOYSA-N,silicon tetrachloride,3.594156604
0.246395624,,3.10171811,54,0,109,702.219285,1.421717204,0.999982424,0.519193338,C_{10}H_{18},"InChI=1S/C10H18/c1-2-6-10-8-4-3-7-9(10)5-1/h9-10H,1-8H2/t9-,10+",NNBZCPXTIHJBJL-AOOOYVTPSA-N,cis-decahydronaphthalene,3.140624344
,0.420401621,5.080341309,0,4,109,730,0.476114844,0.791184319,2.486764743,C_{15}H_{30}O_{2},"InChI=1S/C15H30O2/c1-3-4-5-6-7-8-9-10-11-12-13-14-15(16)17-2/h3-14H2,1-2H3",ZAZKJZBWRNNLDS-UHFFFAOYSA-N,methyl tetradecanoate,1.338842631
,6.544935887,13.99022904,0,3,109,797,1.91555062,0.999848418,0.673905897,C_{16}H_{22}O_{4},"InChI=1S/C16H22O4/c1-3-5-11-19-15(17)13-9-7-8-10-14(13)16(18)20-12-6-4-2/h7-10H,3-6,11-12H2,1-2H3",DOIRQSBPFJWKBE-UHFFFAOYSA-N,"dibutyl 1,2-benzenedicarboxylate",1.66
,0.668820364,1.751266732,0,1,108,636,1.098595281,0.910846011,0.708689556,C_{10}H_{16},"InChI=1S/C10H16/c1-7-4-5-8-6-9(7)10(8,2)3/h4,8-9H,5-6H2,1-3H3",GRWFGVWFFZKLTI-UHFFFAOYSA-N,2-pinene,2.976904637
,2.144631478,2.812003824,0,1,108,571.99989,0.808190603,0.999831091,0.899446342,C_{5}H_{10}O,InChI=1S/C5H10O/c1-2-4-6-5-3-1/h1-5H2,DHXVGJBLRPWPCS-UHFFFAOYSA-N,tetrahydropyran,4.771153568
0.188085689,2.263973531,6.536742829,37,3,108,639.734345,1.253370753,0.999996567,0.647033219,C_{4}H_{5}N,InChI=1S/C4H5N/c1-2-4-5-3-1/h1-5H,KAESVJOAVNADME-UHFFFAOYSA-N,pyrrole,7.616999831
,1.009556532,13.59826619,0,4,108,552,0.591527904,0.923657313,1.669572465,C_{8}H_{18}O_{2},"InChI=1S/C8H18O2/c1-7(2,3)9-10-8(4,5)6/h1-6H3",LSXWFXONGKSEMY-UHFFFAOYSA-N,di-tert-butylperoxide,3.211037125
,0.071800834,1.198259951,0,1,107,599,1.233423183,0.999903996,0.853630734,C_{4}H_{10}O_{2},"InChI=1S/C4H10O2/c1-2-6-4-3-5/h5H,2-4H2,1H3",ZNQVEEAIQZEUHB-UHFFFAOYSA-N,2-ethoxyethan-1-ol,4.406091795
,1.955639074,1.598833218,0,4,107,527.8,1.064482959,0.99978808,0.52886974,CH_{3}I,InChI=1S/CH3I/c1-2/h1H3,INQOMBQAUSQDDS-UHFFFAOYSA-N,iodomethane,6.592101378
,,2.75266879,0,0,107,574.361,0.246309373,0.807126719,3.415618721,C_{6}H_{14}O,"InChI=1S/C6H14O/c1-5(2)4-6(3)7/h5-7H,4H2,1-3H3",WVYWICLMDOOCFB-UHFFFAOYSA-N,4-methyl-2-pentanol,4.566493105
0.909388882,3.484796274,5.887499141,86,6,107,530.56006,1.360413876,0.999999668,0.630260015,C_{6}H_{14}O,"InChI=1S/C6H14O/c1-3-5-7-6-4-2/h3-6H2,1-2H3",POLCUAVZOMRGSN-UHFFFAOYSA-N,dipropyl ether,2.89115269
,,9.726541524,0,0,107,722.6,0.853446892,0.871388934,2.238562596,C_{17}H_{34}O_{2},"InChI=1S/C17H34O2/c1-3-4-5-6-7-8-9-10-11-12-13-14-15-16-17(18)19-2/h3-16H2,1-2H3",FLIACVVOZYBSBS-UHFFFAOYSA-N,methyl hexadecanoate,1.281991938
,,7.29868568,0,0,106,780,0.699230985,0.899211857,1.909489265,C_{6}H_{11}NO,"InChI=1S/C6H11NO/c8-6-4-2-1-3-5-7-6/h1-5H2,(H,7,8)",JBKVHLHDHHXQEQ-UHFFFAOYSA-N,1-aza-2-cycloheptanone,5.920039771
,0.222544892,1.3636449,0,1,103,552.9972048,1.19332686,0.999996681,0.71092231,C_{8}H_{18},"InChI=1S/C8H18/c1-5-8(4)6-7(2)3/h7-8H,5-6H2,1-4H3",HDGQICNBXPAKLR-UHFFFAOYSA-N,"2,4-dimethylhexane",2.551310471
0.08316066,0.679495845,2.926582319,21,19,103,761.1524,0.526948481,0.831194103,1.424426287,C_{11}H_{10},"InChI=1S/C11H10/c1-9-6-7-10-4-2-3-5-11(10)8-9/h2-8H,1H3",QIMMUPPBPVKWKM-UHFFFAOYSA-N,2-methylnaphthalene,3.209513212
0.61007217,1.166323913,1.539412588,25,1,101,430.5876363,1.331717743,0.999971416,0.563467378,CH_{5}N,"InChI=1S/CH5N/c1-2/h2H2,1H3",BAVYZALUXZFZLV-UHFFFAOYSA-N,methanamine,7.611927405
0.155321346,,1.01810592,21,0,100,474.9,0.712802134,0.848471355,0.898518513,C_{5}H_{8},"InChI=1S/C5H8/c1-4-5(2)3/h4H,1-2H2,3H3",RRHGJUQNOFWUDK-UHFFFAOYSA-N,"2-methyl-1,3-butadiene",3.81277545
,0.360259726,4.857122891,0,2,100,661.7,0.503810541,0.844050851,2.64688996,C_{11}H_{22}O_{2},"InChI=1S/C11H22O2/c1-3-4-5-6-7-8-9-10-11(12)13-2/h3-10H2,1-2H3",YRHYCMZPEVDGFQ-UHFFFAOYSA-N,methyl decanoate,2.12790593
,,0.117010988,0,0,99,367.85,0.165942938,0.843701187,2.652585391,C_{3}H_{2}F_{4},"InChI=1S/C3H2F4/c1-2(4)3(5,6)7/h1H2",FXRLMCRCYDHQFW-UHFFFAOYSA-N,"2,3,3,3-tetrafluoro-1-propene",3.379452682
,,1.598420186,0,0,99,519.1875862,0.188730488,0.832780491,2.848925225,C_{4}H_{6}O_{2},"InChI=1S/C4H6O2/c1-3-6-4(2)5/h3H,1H2,2H3",XTXRWKRVRITETP-UHFFFAOYSA-N,vinyl acetate,4.174843474
0.429601654,,1.945206181,31,0,99,706,0.366594969,0.785801348,1.869417866,C_{7}H_{9}N,"InChI=1S/C7H9N/c1-6-2-4-7(8)5-3-6/h2-5H,8H2,1H3",RZXMPPFPUUCRFN-UHFFFAOYSA-N,4-methylaniline,4.303838716
,,2.371495613,0,0,99,747.62992,0.676991821,0.784087246,1.923340475,C_{18}H_{38},"InChI=1S/C18H38/c1-3-5-7-9-11-13-15-17-18-16-14-12-10-8-6-4-2/h3-18H2,1-2H3",RZJRJXONCZWCBN-UHFFFAOYSA-N,octadecane,1.281819427
,1.37936942,4.218098175,0,2,99,755,1.372027524,0.999909421,0.883891993,C_{7}H_{6}O_{2},"InChI=1S/C7H6O2/c8-7(9)6-4-2-1-3-5-6/h1-5H,(H,8,9)",WPYMKLBDIGXBTP-UHFFFAOYSA-N,benzoic acid,4.645792375
,,5.234353301,0,0,99,677,0.408253474,0.863029348,2.352720656,C_{7}H_{9}N,"InChI=1S/C7H9N/c8-6-7-4-2-1-3-5-7/h1-5H,6,8H2",WGQKYBSKWIADBV-UHFFFAOYSA-N,benzylamine,5.028581372
3.350971713,2.345743288,6.601422945,20,1,99,437.483748,1.673741876,0.999757033,0.460523512,C_{2}H_{7}N,"InChI=1S/C2H7N/c1-3-2/h3H,1-2H3",ROSDSFDQCJNGOL-UHFFFAOYSA-N,dimethylamine,5.334841659
,,0.856432218,0,0,98,546,0.372093791,0.836827144,1.884744769,C_{7}H_{16}O,"InChI=1S/C7H16O/c1-5-7(3,4)8-6-2/h5-6H2,1-4H3",KFRVYYGHSPLXSZ-UHFFFAOYSA-N,"1,1-dimethylpropyl ethyl ether",2.830932479
0.182904203,1.865182848,2.535632198,36,4,98,487.0973241,0.617264826,0.816407947,1.020691203,C_{2}Cl_{3}F_{3},"InChI=1S/C2Cl3F3/c3-1(4,6)2(5,7)8",AJDIZQLSFPQPEY-UHFFFAOYSA-N,"1,1,2-trichloro-1,2,2-trifluoroethane",3.390689511
0.563974154,1.31417328,1.308974839,20,4,96,428.6083626,0.381055902,0.845179545,1.415207632,C_{4}H_{8},"InChI=1S/C4H8/c1-3-4-2/h3-4H,1-2H3/b4-3+",IAQRGUVFOMOMEM-ONEGZZNKSA-N,(E)-2-butene,4.031995626
0.361975986,0.200567538,2.060260207,71,8,95,519.749974,0.533481592,0.815393185,1.258659387,C_{7}H_{16},"InChI=1S/C7H16/c1-6(2)5-7(3)4/h6-7H,5H2,1-4H3",BZHMBWZPUJHVEE-UHFFFAOYSA-N,"2,4-dimethylpentane",2.735371249
,0.722898406,2.167549677,0,2,95,602.8,1.371335859,0.999224019,0.714883324,C_{7}H_{14}O_{2},"InChI=1S/C7H14O2/c1-3-4-5-6-7(8)9-2/h3-6H2,1-2H3",NUKZAGXMHTUAFE-UHFFFAOYSA-N,methyl hexanoate,2.719898825
,,0.091802483,0,0,94,304.1793535,0.64606792,0.827942676,0.957675703,CO_{2},InChI=1S/CO2/c2-1-3,CURLTUGMZLYLDI-UHFFFAOYSA-N,carbon dioxide,7.381764547
0.887099414,0.426898117,0.964025008,12,3,94,134.1847138,0.993818538,0.999990496,0.416561551,CO,InChI=1S/CO/c1-2,UGFAIRIUMAVXCW-UHFFFAOYSA-N,carbon monoxide,3.707797667
0.0001012,,1.091585362,1,0,94,640.206975,0.400125828,0.843756777,1.851050978,C_{9}H_{12},"InChI=1S/C9H12/c1-3-9-6-4-8(2)5-7-9/h4-7H,3H2,1-2H3",JRLPEMVDPFPYPJ-UHFFFAOYSA-N,1-ethyl-4-methylbenzene,3.233711784
0.360129643,0.634431127,1.537242977,23,1,94,398.26934,0.492519819,0.850093563,0.967635813,C_{3}H_{6},InChI=1S/C3H6/c1-2-3-1/h1-3H2,LVZWSLJZHVFIQJ-UHFFFAOYSA-N,cyclopropane,5.579736525
,,2.193867364,0,0,94,640.15698,0.91817491,0.503300979,1.058269968,C_{8}H_{18}O,"InChI=1S/C8H18O/c1-3-5-6-8(4-2)7-9/h8-9H,3-7H2,1-2H3",YIWUKEYIRIRTPP-UHFFFAOYSA-N,2-ethyl-1-hexanol,2.814870988
0.254358765,1.072110798,4.593660211,26,4,94,557.5133015,1.000211574,0.884902297,0.73731833,C_{4}H_{10}S,"InChI=1S/C4H10S/c1-3-5-4-2/h3-4H2,1-2H3",LJSQFQKUNVCTIA-UHFFFAOYSA-N,3-thiapentane,4.034662098
,,1.198443302,0,0,93,579.8,1.376465868,0.995962519,0.703730972,C_{4}H_{10}O_{2},"InChI=1S/C4H10O2/c1-4(5)3-6-2/h4-5H,3H2,1-2H3",ARXJGSRGQADJSQ-UHFFFAOYSA-N,1-methoxy-2-propanol,4.113151847
0.334210114,0.393270087,3.347591515,42,10,93,520.460187,1.360566351,0.999757615,0.534981916,C_{7}H_{16},"InChI=1S/C7H16/c1-5-6-7(2,3)4/h5-6H2,1-4H3",CXOWYJMDMMMMJO-UHFFFAOYSA-N,"2,2-dimethylpentane",2.750505259
,,4.07621788,0,0,93,655,1.886606682,0.996649269,0.512263155,C_{3}H_{9}NO,"InChI=1S/C3H9NO/c1-4-2-3-5/h4-5H,2-3H2,1H3",OPKOKAMJFNKNAS-UHFFFAOYSA-N,2-(methylamino)ethanol,6.079219219
0.188703073,1.746646083,4.95103374,82,7,93,634,0.429997521,0.829350678,1.426668872,C_{2}H_{4}Br_{2},InChI=1S/C2H4Br2/c3-1-2-4/h1-2H2,PAAZPARNPHGIKF-UHFFFAOYSA-N,"1,2-dibromoethane",4.73562921
,1.365995639,8.782579905,0,1,93,718.6307948,1.345333804,0.999998435,0.938951906,C_{3}H_{8}O_{2},"InChI=1S/C3H8O2/c4-2-1-3-5/h4-5H,1-3H2",YPFDHNVEDLHUCE-UHFFFAOYSA-N,"propan-1,3-diol",6.580274055
0.664200275,1.61025346,2.521738401,9,1,92,577.2774694,0.271119598,0.784598403,1.609556042,C_{3}H_{6}Cl_{2},"InChI=1S/C3H6Cl2/c1-3(5)2-4/h3H,2H2,1H3",KNKRKFALVUDBJE-UHFFFAOYSA-N,"1,2-dichloropropane",4.490253061
,0.097293063,4.45659269,0,1,92,615,0.170763911,0.843010701,2.66491526,C_{5}H_{8}O_{2},"InChI=1S/C5H8O2/c1-4(6)3-5(2)7/h3H2,1-2H3",YRKCREAYFQTBPV-UHFFFAOYSA-N,"2,4-pentanedione",3.019405702
,,3.00339222,0,0,91,573,0.657376438,0.949273231,1.352099723,C_{4}H_{6}O,"InChI=1S/C4H6O/c1-2-3-4-5/h2-4H,1H3",MLUCVPSAIODCQM-UHFFFAOYSA-N,2-butenal,4.506230088
,,4.091425957,0,0,91,585.9881505,2.180660727,0.763968592,0.549386032,C_{6}H_{14}O,"InChI=1S/C6H14O/c1-3-4-5-6(2)7/h6-7H,3-5H2,1-2H3",QNVRIHYSUZMSGM-UHFFFAOYSA-N,2-hexanol,3.31
0.662885844,0.703794122,13.92763342,95,2,91,731,0.673901477,0.862689386,1.181740223,C_{4}H_{6}O_{2},InChI=1S/C4H6O2/c5-4-2-1-3-6-4/h1-3H2,YEJRWHAVMIAJKC-UHFFFAOYSA-N,.gamma.-butyrolactone,5.12217069
,,2.533985556,0,0,89,599.6233333,0.268353221,0.800737774,2.475305505,C_{7}H_{14}O_{2},"InChI=1S/C7H14O2/c1-3-4-5-6-9-7(2)8/h3-6H2,1-2H3",PGMYKACGEOXYJE-UHFFFAOYSA-N,pentyl ethanoate,2.770171994
0.336658186,0.791084515,3.030654794,42,4,89,530.3689008,0.883179401,0.848305418,0.883937877,C_{7}H_{16},"InChI=1S/C7H16/c1-4-5-6-7(2)3/h7H,4-6H2,1-3H3",GXDHCNNESPLIKD-UHFFFAOYSA-N,2-methylhexane,2.733359208
,,4.246431355,0,0,89,701.76942,1.063272972,0.874428777,0.836645384,C_{7}H_{9}N,"InChI=1S/C7H9N/c1-8-7-5-3-2-4-6-7/h2-6,8H,1H3",AFBPFSWMIHJQDM-UHFFFAOYSA-N,N-methylaniline,4.219084493
0.886379423,0.999045649,1.607060988,153,5,88,570.5,1.235688027,0.999948929,0.601718464,C_{4}H_{9}Br,"InChI=1S/C4H9Br/c1-2-3-4-5/h2-4H2,1H3",MPPPKRYCTPRNTB-UHFFFAOYSA-N,1-bromobutane,3.832697881
,,2.219022487,0,0,88,440,0.458618085,0.92369483,1.669325955,C_{3}H_{2}ClF_{3},"InChI=1S/C3H2ClF3/c1-2(4)3(5,6)7/h1H2",OQISUJXQFPPARX-UHFFFAOYSA-N,"2-chloro-3,3,3-trifluoro-1-propene",4.1561073
1.344216518,1.330291283,2.512991715,16,5,88,585.3956667,0.412555091,0.881302221,1.961016615,C_{4}H_{7}N,"InChI=1S/C4H7N/c1-2-3-4-5/h2-3H2,1H3",KVNRLNFWIYMESJ-UHFFFAOYSA-N,butanenitrile,3.820444824
0.649705023,0.130126279,2.794972087,56,4,88,536.365276,0.431040472,0.81879265,1.372349153,C_{7}H_{16},"InChI=1S/C7H16/c1-5-7(3,4)6-2/h5-6H2,1-4H3",AEXMKKGTQYQZCS-UHFFFAOYSA-N,"3,3-dimethylpentane",2.938153104
,0.140524667,2.918483239,0,1,88,688.1261739,0.62666963,0.851931399,1.379464126,C_{8}H_{11}N,"InChI=1S/C8H11N/c1-9(2)8-6-4-3-5-7-8/h3-7H,1-2H3",JLTDJTHDQAWBAV-UHFFFAOYSA-N,"N,N-dimethylaniline",3.6211064
,,12.39953761,0,0,88,770,1.246607846,0.745968916,1.114658192,C_{16}H_{34}O,"InChI=1S/C16H34O/c1-2-3-4-5-6-7-8-9-10-11-12-13-14-15-16-17/h17H,2-16H2,1H3",BXWNKGSJHAJOGX-UHFFFAOYSA-N,1-hexadecanol,1.444696478
2.017842209,1.605118513,15.56736584,39,31,88,675.6722331,0.382704148,0.833041117,2.844369638,C_{13}H_{28},"InChI=1S/C13H28/c1-3-5-7-9-11-13-12-10-8-6-4-2/h3-13H2,1-2H3",IIYFAKIEWZDVMP-UHFFFAOYSA-N,tridecane,1.68533291