AAD_Csat,AAD_hfg,AAD_psat,N_Csat,N_hfg,N_psat,Tc_K,c0,c1,c2,formula,inchi,inchikey,name,pc_MPa
,,2.021446263,0,0,19,669,1.316103361,0.989733857,0.986605502,C_{9}H_{16}O_{4},"InChI=1S/C9H16O4/c1-3-5-12-8(10)7-9(11)13-6-4-2/h3-7H2,1-2H3",LWIWFCDNJNZEKB-UHFFFAOYSA-N,"dipropyl 1,3-propanedioate",1.911613455
,,2.127275134,0,0,19,578.7,0.704917669,0.947140063,1.367545265,C_{9}H_{20},"InChI=1S/C9H20/c1-8(2)6-5-7-9(3)4/h8-9H,5-7H2,1-4H3",KBPCCVWUMVGXGF-UHFFFAOYSA-N,"2,6-dimethylheptane",2.359043062
,,2.449472936,0,0,19,736,0.877584784,0.890808459,1.095115067,C_{8}H_{7}N,"InChI=1S/C8H7N/c9-7-6-8-4-2-1-3-5-8/h1-5H,6H2",SUSQOBVLVYHIEX-UHFFFAOYSA-N,benzeneacetonitrile,3.347042085
,,2.557514114,0,0,19,788,1.286873128,0.9997538,0.723904425,C_{9}H_{10}O,"InChI=1S/C9H10O/c10-9-5-4-7-2-1-3-8(7)6-9/h4-6,10H,1-3H2",PEHSSTUGJUBZBI-UHFFFAOYSA-N,"2,3-dihydro-1H-inden-5-ol",4.410596175
,0.044379213,2.872325609,0,1,19,583,0.36569502,0.868283695,2.274310904,C_{5}H_{9}N,"InChI=1S/C5H9N/c1-3-5(2)4-6/h5H,3H2,1-2H3",RCEJCSULJQNRQQ-UHFFFAOYSA-N,"butanenitrile, 2-methyl-",3.44543264
,,2.884711205,0,0,19,573,1.394913715,0.999493176,0.559155867,C_{4}H_{8}Cl_{2},"InChI=1S/C4H8Cl2/c1-4(2,6)3-5/h3H2,1-2H3",OQPNDCHKFIHPBY-UHFFFAOYSA-N,"1,2-dichloro-2-methylpropane",3.658303682
,,3.183431692,0,0,19,718,0.379296336,0.820240361,3.105543891,C_{10}H_{22}O_{5},"InChI=1S/C10H22O5/c1-11-3-5-13-7-9-15-10-8-14-6-4-12-2/h3-10H2,1-2H3",ZUHZGEOKBKGPSW-UHFFFAOYSA-N,"2,5,8,11,14-pentaoxapentadecane",2.067652149
,0.038726389,3.273078995,0,1,19,640.4,0.324179941,0.828100722,2.941094992,C_{8}H_{16}O_{3},"InChI=1S/C8H16O3/c1-3-4-5-10-6-7-11-8(2)9/h3-7H2,1-2H3",NQBXSWAWVZHKBZ-UHFFFAOYSA-N,2-butoxyethyl acetate,2.69319655
,,3.309446193,0,0,19,570,1.066952035,0.850920986,0.798958626,C_{8}H_{16},"InChI=1S/C8H16/c1-3-5-7-8-6-4-2/h7-8H,3-6H2,1-2H3/b8-7-",IRUCBBFNLDIMIK-FPLPWBNLSA-N,(Z)-4-octene,2.601585901
,,3.319795893,0,0,19,428,0.115774813,0.827905978,2.905577218,ClFO_{2}S,"InChI=1S/ClFO2S/c1-5(2,3)4",IXPAAHZTOUOJJM-UHFFFAOYSA-N,sulfuryl chloride fluoride,4.170948584
,,3.435650711,0,0,19,664,1.2727642,0.999600885,1.001502823,C_{8}H_{14}O_{4},"InChI=1S/C8H14O4/c1-3-5-11-7(9)8(10)12-6-4-2/h3-6H2,1-2H3",HZHMMLIMOUNKCK-UHFFFAOYSA-N,di-n-propyl oxalate,2.595346787
,,3.5157102,0,0,19,712,0.793023975,0.899550337,1.905898971,C_{5}H_{8}O_{3},"InChI=1S/C5H8O3/c1-4(6)2-3-5(7)8/h2-3H2,1H3,(H,7,8)",JOOXCMJARBKPKM-UHFFFAOYSA-N,4-oxopentanoic acid,3.519956477
0.06605057,,3.5642389,29,0,19,680.5,0.677382275,0.804451114,1.503010298,C_{10}H_{21}Cl,"InChI=1S/C10H21Cl/c1-2-3-4-5-6-7-8-9-10-11/h2-10H2,1H3",ZTEHOZMYMCEYRM-UHFFFAOYSA-N,1-chlorodecane,2.15567259
,0.048075222,3.648151141,0,1,19,708,0.488128081,0.832618188,2.852670678,C_{14}H_{26}O_{2},"InChI=1S/C14H26O2/c1-3-4-5-6-7-8-9-10-11-12-13-16-14(2)15/h5-6H,3-4,7-13H2,1-2H3/b6-5-",SUCYDSJQVVGOIW-WAYWQWQTSA-N,(Z)-dodec-8-enyl acetate,1.789810094
,,3.832149242,0,0,19,694,0.476241444,0.874786573,2.194209335,C_{8}H_{7}N,"InChI=1S/C8H7N/c1-7-3-2-4-8(5-7)6-9/h2-5H,1H3",BOHCMQZJWOGWTA-UHFFFAOYSA-N,3-cyanotoluene,3.630738443
,,3.860401515,0,0,19,760,2.601926364,0.52914355,0.527199483,C_{9}H_{20}O_{2},"InChI=1S/C9H20O2/c1-3-5-6-9(4-2,7-10)8-11/h10-11H,3-8H2,1-2H3",DSKYSDCYIODJPC-UHFFFAOYSA-N,"2-butyl-2-ethyl-1,3-propanediol",2.823367595
,,4.262631536,0,0,19,760,1.240145905,0.978837727,1.118704898,C_{14}H_{18}O_{4},"InChI=1S/C14H18O4/c1-9(2)17-13(15)11-7-5-6-8-12(11)14(16)18-10(3)4/h5-10H,1-4H3",QWDBCIAVABMJPP-UHFFFAOYSA-N,"bis(1-methylethyl) 1,2-benzenedicarboxylate",1.888831537
,,4.279053077,0,0,19,803,0,0.696761486,1.408572393,C_{7}H_{5}FN_{2}O_{4},"InChI=1S/C7H5FN2O4/c8-7(9(11)12,10(13)14)6-4-2-1-3-5-6/h1-5H",NPRRCIKUIFRPTB-UHFFFAOYSA-N,fluorodinitrophenylmethane,2.961986884
,,4.30502791,0,0,19,784,1.561367236,0.999172374,0.585537172,C_{14}H_{16},"InChI=1S/C14H16/c1-14(2,3)13-9-8-11-6-4-5-7-12(11)10-13/h4-10H,1-3H3",MCEORGGPAKTORV-UHFFFAOYSA-N,"2-(1,1-dimethylethyl)naphthalene",2.470557095
,,4.322268809,0,0,19,549,0.438705683,0.923567392,1.670134483,C_{2}H_{3}BrO,InChI=1S/C2H3BrO/c1-2(3)4/h1H3,FXXACINHVKSMDR-UHFFFAOYSA-N,acetyl bromide,4.693824804
,,4.865085617,0,0,19,745,0.825007866,0.918906133,1.713374184,C_{9}H_{11}BrO_{2},"InChI=1S/C9H11BrO2/c1-11-6-7-12-9-5-3-2-4-8(9)10/h2-5H,6-7H2,1H3",YQNVKSQBACJWHD-UHFFFAOYSA-N,1-bromo-2-(2-methoxyethoxy)benzene,2.815552013
,,5.227483474,0,0,19,595,0.664129856,0.899139982,1.910204474,C_{7}H_{14}O_{2},"InChI=1S/C7H14O2/c1-2-3-4-5-6-9-7-8/h7H,2-6H2,1H3",OUGPMNMLWKSBRI-UHFFFAOYSA-N,hexyl methanoate,3.49288067
0.248300035,0.291376764,5.273297029,52,3,19,569.8254,0.424931836,0.814602932,1.720784564,C_{6}ClF_{5},InChI=1S/C6ClF5/c7-1-2(8)4(10)6(12)5(11)3(1)9,KGCDGLXSBHJAHZ-UHFFFAOYSA-N,chloropentafluorobenzene,3.19029419
,,5.276790513,0,0,19,671.8,1.622042491,0.96662781,0.642561375,C_{10}H_{20}O,"InChI=1S/C10H20O/c1-3-4-5-6-7-8-9-10(2)11/h3-9H2,1-2H3",ZAJNGDIORYACQU-UHFFFAOYSA-N,2-decanone,2.233370609
0.135513946,,6.053719744,21,0,19,732,0.544512119,0.83651113,2.097568028,C_{15}H_{30},"InChI=1S/C15H30/c1-2-3-4-5-6-7-8-9-12-15-13-10-11-14-15/h15H,2-14H2,1H3",WOUVLFFZQCUYOL-UHFFFAOYSA-N,decylcyclopentane,1.621520148
,,7.393480493,0,0,19,859,1.302282303,0.948472576,0.885840569,C_{19}H_{16},"InChI=1S/C19H16/c1-4-10-16(11-5-1)19(17-12-6-2-7-13-17)18-14-8-3-9-15-18/h1-15,19H",AAAQKTZKLRYKHR-UHFFFAOYSA-N,triphenylmethane,1.996912679
,,7.59828435,0,0,19,888,0,0.317654933,0.92401586,C_{15}H_{28}O_{2},InChI=1S/C15H28O2/c16-15-13-11-9-7-5-3-1-2-4-6-8-10-12-14-17-15/h1-14H2,FKUPPRZPSYCDRS-UHFFFAOYSA-N,oxacyclohexadecan-2-one,2.248039318
,,8.987152885,0,0,19,948,1.301447324,0.75309837,1.08692061,C_{24}H_{18},InChI=1S/C24H18/c1-4-10-19(11-5-1)22-16-23(20-12-6-2-7-13-20)18-24(17-22)21-14-8-3-9-15-21/h1-18H,SXWIAEOZZQADEY-UHFFFAOYSA-N,"1,3,5-triphenylbenzene",2.144139061
,,9.019733173,0,0,19,702,0.845425114,0.915425339,1.746028905,C_{8}H_{9}I,"InChI=1S/C8H9I/c1-7(9)8-5-3-2-4-6-8/h2-7H,1H3",HOVGFTKZAOQJEF-UHFFFAOYSA-N,(1-iodoethyl)benzene,3.84478104
0.201410656,1.261374233,9.452061454,16,5,19,684,1.611197091,0.998239937,0.34498977,C_{5}H_{10}S,InChI=1S/C5H10S/c1-2-4-6-5-3-1/h1-5H2,YPWFISCTZQNZAU-UHFFFAOYSA-N,thiacyclohexane,6.500037291
,0.423408776,9.792105012,0,1,19,735,0.20773947,0.835081801,2.805748787,C_{9}H_{10}O,"InChI=1S/C9H10O/c1-7-3-5-9(6-4-7)8(2)10/h3-6H,1-2H3",GNKZMNRKLCTJAY-UHFFFAOYSA-N,4'-methylacetophenone,3.570053793
,1.061545787,10.02896803,0,1,19,433.2667283,1.586549045,0.924374367,0.581552696,C_{4}H_{3}F_{7}O,"InChI=1S/C4H3F7O/c1-12-2(5,3(6,7)8)4(9,10)11/h1H3",HRXXERHTOVVTQF-UHFFFAOYSA-N,methyl perfluoroisopropyl ether,2.537993455
,,10.24517599,0,0,19,683,0,0.193082911,0.960007367,C_{9}H_{12}O,"InChI=1S/C9H12O/c1-9(2,10)8-6-4-3-5-7-8/h3-7,10H,1-2H3",BDCFWIDZNLCTMF-UHFFFAOYSA-N,".alpha.,.alpha.-dimethylbenzyl alcohol",1.975591265
,0.493510928,10.3061389,0,1,19,712,0.537508391,0.840725616,1.464242721,C_{10}H_{14}O_{2},"InChI=1S/C10H14O2/c1-10(11-2,12-3)9-7-5-4-6-8-9/h4-8H,1-3H3",XKSUVRWJZCEYQQ-UHFFFAOYSA-N,"benzene, (1,1-dimethoxyethyl)-",2.936993169
0.127603595,2.792120705,10.4978067,15,1,19,700,1.799325606,0.999970098,0.49597905,C_{9}H_{20}N_{2}O,"InChI=1S/C9H20N2O/c1-5-10(6-2)9(12)11(7-3)8-4/h5-8H2,1-4H3",UWHSPZZUAYSGTB-UHFFFAOYSA-N,"N,N,N',N'-tetraethylurea",3.495924647
,,18.21090597,0,0,19,634,0,0.33365428,0.664330673,C_{5}H_{9}NO,"InChI=1S/C5H9NO/c1-2-3-4-6-5-7/h2-4H2,1H3",HNHVTXYLRVGMHD-UHFFFAOYSA-N,butyl isocyanate,3.242712086
,,48.58508629,0,0,19,779,0.018695264,0.056607391,0.946083264,C_{14}H_{16},"InChI=1S/C14H16/c1-2-3-7-12-9-6-10-13-8-4-5-11-14(12)13/h4-6,8-11H,2-3,7H2,1H3",URGSMJLDEFDWNX-UHFFFAOYSA-N,1-butylnaphthalene,2.630954786
,,0.020363592,0,0,18,564,0.353521536,0.80600054,2.704676898,C_{11}F_{22},"InChI=1S/C11F22/c12-2(1(8(22,23)24,9(25,26)27)10(28,29)30)4(14,15)6(18,19)3(13,11(31,32)33)7(20,21)5(2,16)17",DSHQRENFDMQWER-UHFFFAOYSA-N,perfluoro(1-methyl-4-tert-butyl)cyclohexane,1.109081188
,,0.028227152,0,0,18,635,0.17629902,0.845438635,2.623878768,C_{6}H_{12}S,"InChI=1S/C6H12S/c1-5-3-4-6(2)7-5/h5-6H,3-4H2,1-2H3/t5-,6+",IBKCTZVPGMUZGZ-OLQVQODUSA-N,"cis-2,5-dimethyltetrahydrothiophene",3.89768876
,,0.039519208,0,0,18,661,0.202032142,0.827737444,2.948346698,C_{7}H_{14}Cl_{2},"InChI=1S/C7H14Cl2/c1-2-3-4-5-6-7(8)9/h7H,2-6H2,1H3",MEMYUUBNXYUWRG-UHFFFAOYSA-N,"1,1-dichloroheptane",2.726154692
,0.000175627,0.050266529,0,1,18,521,0.373496721,0.804567464,2.420807591,C_{9}F_{18},"InChI=1S/C9F18/c10-1(4(15,16)8(23,24)9(25,26)27)2(11,12)5(17,18)7(21,22)6(19,20)3(1,13)14",ITPKQVFBLQIXLT-UHFFFAOYSA-N,perfluoro(propylcyclohexane),1.426957656
,,0.130706613,0,0,18,816,1.276599808,0.999984853,0.727884219,C_{10}H_{8}N_{2},InChI=1S/C10H8N2/c1-2-4-9(5-3-1)10-6-7-11-8-12-10/h1-8H,MKLQPIYLZMLAER-UHFFFAOYSA-N,4-phenylpyrimidine,3.827397081
,,0.138426947,0,0,18,738,0.396992432,0.810713772,1.905602865,C_{13}H_{18},"InChI=1S/C13H18/c1-9-5-6-10(2)12-11(9)7-8-13(12,3)4/h5-6H,7-8H2,1-4H3",IFZVSOLCUIWLFW-UHFFFAOYSA-N,"2,3-dihydro-1,1,4-7-tetramethyl-1H-indene",2.681400386
,,0.140650568,0,0,18,721,0.526204867,0.816515306,1.528770649,C_{11}H_{14},"InChI=1S/C11H14/c1-8-6-9(2)11-5-3-4-10(11)7-8/h6-7H,3-5H2,1-2H3",BSYQUYXSAFIGLB-UHFFFAOYSA-N,"4,6-dimethylindan",2.971006068
,,0.175993488,0,0,18,724,0.32528339,0.814439058,2.254000637,C_{13}H_{18},"InChI=1S/C13H18/c1-9-7-10(2)11-5-6-13(3,4)12(11)8-9/h7-8H,5-6H2,1-4H3",PJPNYZCIGFQVQG-UHFFFAOYSA-N,"2,3-dihydro-1,1,4,6-tetramethyl-1H-indene",2.788964887
,0.073177905,0.19191906,0,5,18,494,0.14960667,0.840820619,2.702327397,C_{2}HBrClF_{3},"InChI=1S/C2HBrClF3/c3-1(4)2(5,6)7/h1H",BCQZXOMGPXTTIC-UHFFFAOYSA-N,"1-bromo-1-chloro-2,2,2-trifluoroethane",3.784910069
,,0.207843869,0,0,18,812,0.406646566,0.85802529,2.425560691,C_{10}H_{8}N_{2},InChI=1S/C10H8N2/c1-2-6-12-10(3-1)9-4-7-11-8-5-9/h1-8H,RMHQDKYZXJVCME-UHFFFAOYSA-N,"2,4'-bipyridine",3.767638903
,,0.28776536,0,0,18,467.76022,1.099134432,0.948908325,0.844186128,C_{3}H_{2}ClF_{5}O,"InChI=1S/C3H2ClF5O/c4-1(3(7,8)9)10-2(5)6/h1-2H",PIWKPBJCKXDKJR-UHFFFAOYSA-N,"2-chloro-2-(difluoromethoxy)-1,1,1-trifluoroethane",3.045965433
,0.006609668,0.315544359,0,1,18,696,1.141073031,0.99998302,0.994473872,C_{10}H_{14}O,"InChI=1S/C10H14O/c1-6-4-9(11)8-5-7(6)10(8,2)3/h4,7-8H,5H2,1-3H3/t7-,8+/m0/s1",DCSCXTJOXBUFGB-JGVFFNPUSA-N,(-)-verbenone,3.002439482
,,0.318164499,0,0,18,717,0.275363605,0.8230595,2.141690062,C_{9}H_{16}O,InChI=1S/C9H16O/c10-9-7-5-3-1-2-4-6-8-9/h1-8H2,BAUZLFKYYIVGPM-UHFFFAOYSA-N,cyclononanone,2.620946841
,,0.393433015,0,0,18,571.2,0.850484913,0.985965251,1.073753526,C_{8}H_{16},"InChI=1S/C8H16/c1-5-6-8(4)7(2)3/h5-6H2,1-4H3",RGYAVZGBAJFMIZ-UHFFFAOYSA-N,"2,3-dimethyl-2-hexene",2.647680147
,,0.599795818,0,0,18,533.6,0.646779839,0.967348136,1.198324863,C_{7}H_{14},"InChI=1S/C7H14/c1-5-7(4)6(2)3/h7H,2,5H2,1,3-4H3",LIMAEKMEXJTSNI-UHFFFAOYSA-N,"2,3-dimethyl-1-pentene",2.85755145
,,0.614031219,0,0,18,463.0414109,1.373197967,0.999892765,0.685679945,C_{6}F_{14},"InChI=1S/C6F14/c7-1(3(9,10)11,4(12,13)14)2(8,5(15,16)17)6(18,19)20",NBQYGIPVNCVJJP-UHFFFAOYSA-N,"butane, octafluoro-2,3-bis(trifluoromethyl)-",1.984854073
,,0.617663725,0,0,18,592.1,0.718762449,0.845398634,1.094136265,C_{9}H_{20},"InChI=1S/C9H20/c1-6-7-8(2)9(3,4)5/h8H,6-7H2,1-5H3",CBVFSZDQEHBJEQ-UHFFFAOYSA-N,"2,2,3-trimethylhexane",2.709448589
,,0.687707973,0,0,18,507.8,0.931100414,0.801291805,0.816729165,C_{5}H_{10}O,"InChI=1S/C5H10O/c1-3-5-6-4-2/h4H,2-3,5H2,1H3",OVGRCEFMXPHEBL-UHFFFAOYSA-N,1-(ethenyloxy)- propane,3.576107143
,,0.692554099,0,0,18,497,1.513652999,0.830350057,0.832633718,C_{3}H_{5}F_{3}O,"InChI=1S/C3H5F3O/c1-2(7)3(4,5)6/h2,7H,1H3",GILIYJDBJZWGBG-UHFFFAOYSA-N,"1,1,1-trifluoro-2-propanol",4.316887144
,,0.696823474,0,0,18,626,1.220400626,0.615001985,0.944592071,C_{8}H_{18}O,"InChI=1S/C8H18O/c1-4-8(6-9)5-7(2)3/h7-9H,4-6H2,1-3H3",QCHSJPKDWOFACC-UHFFFAOYSA-N,2-ethyl-4-methyl-1-pentanol,2.766889726
,,0.74359799,0,0,18,411.98,1.025936862,0.911257561,0.632201146,CHBrF_{2},InChI=1S/CHBrF2/c2-1(3)4/h1H,GRCDJFHYVYUNHM-UHFFFAOYSA-N,bromodifluoromethane,5.175911511
,,0.780336662,0,0,18,714,0.259540626,0.81875189,2.686999426,C_{11}H_{14}O_{2},"InChI=1S/C11H14O2/c1-11(2,3)13-10(12)9-7-5-4-6-8-9/h4-8H,1-3H3",LYDRKKWPKKEMNZ-UHFFFAOYSA-N,"1,1-dimethylethyl benzoate",3.245183691
,,0.787090358,0,0,18,862,0.650883484,0.945609064,1.389085569,C_{7}H_{10}N_{2},"InChI=1S/C7H10N2/c1-2-7(1)5-9-4-3-8-6-9/h3-4,6-7H,1-2,5H2",BSRRKSSFRABLLB-UHFFFAOYSA-N,N-(cyclopropylmethyl)-imidazole,5.469989932
,,0.814899617,0,0,18,829,0.750981322,0.923692906,1.669352935,C_{3}H_{4}N_{2},"InChI=1S/C3H4N2/c1-2-5-3-4-1/h1-3H,(H,4,5)",RAXXELZNTBOGNW-UHFFFAOYSA-N,1H-imidazole,13.79339475
,,0.825201001,0,0,18,507,0.53230041,0.923693627,1.669258838,C_{6}H_{12},"InChI=1S/C6H12/c1-4-6(3)5-2/h4H,5H2,1-3H3/b6-4+",BEQGRRJLJLVQAQ-GQCTYLIASA-N,(E)-3-methyl-2-pentene,3.523296157
,,0.836900618,0,0,18,458,0.86670695,0.859001211,1.237817723,C_{5}H_{3}F_{9}O,"InChI=1S/C5H3F9O/c1-15-5(13,14)3(8,9)2(6,7)4(10,11)12/h1H3",OKIYQFLILPKULA-UHFFFAOYSA-N,1-methoxy-nonafluorobutane,2.220385495
,0.028991244,0.860508108,0,1,18,700,1.256370444,0.999858548,0.71159628,C_{7}H_{10}N_{2},"InChI=1S/C7H10N2/c1-9(2)7-5-3-4-6-8-7/h3-6H,1-2H3",PSHKMPUSSFXUIA-UHFFFAOYSA-N,"N,N-dimethyl-2-pyridinamine",4.015345721
,,0.988690158,0,0,18,568,0.6230873,0.887918816,2.034501941,C_{3}H_{7}ClO,"InChI=1S/C3H7ClO/c1-3(5)2-4/h3,5H,2H2,1H3",YYTSGNJTASLUOY-UHFFFAOYSA-N,1-chloro-2-propanol,4.319562364
,,1.206083036,0,0,18,561,1.02582406,0.998428693,1.006261512,C_{4}H_{12}N_{2},"InChI=1S/C4H12N2/c1-6(2)4-3-5/h3-5H2,1-2H3",DILRJUIACXKSQE-UHFFFAOYSA-N,2-dimethylamino-1-ethylamine,4.241827605
,,1.260450086,0,0,18,716,1.432121423,0.942060064,0.742108263,C_{11}H_{14}O_{3},"InChI=1S/C11H14O3/c1-11(2,3)14-10(12)13-9-7-5-4-6-8-9/h4-8H,1-3H3",UXWVQHXKKOGTSY-UHFFFAOYSA-N,tert-butyl phenyl carbonate,2.620286597
,,1.260495389,0,0,18,886,1.136808304,0.961721323,1.230297038,C_{17}H_{14}FeO,InChI=1S/C12H9O.C5H5.Fe/c13-12(11-8-4-5-9-11)10-6-2-1-3-7-10;1-2-4-5-3-1;/h1-9H;1-5H;/q2*-1;+2,PWUMGRPMAGSFJU-UHFFFAOYSA-N,benzoylferrocene,1.583873758
,,1.291363489,0,0,18,728,1.025195159,0.876525047,0.882277006,C_{10}H_{14}O_{3},"InChI=1S/C10H14O3/c1-11-10(12-2,13-3)9-7-5-4-6-8-9/h4-8H,1-3H3",IECKAVQTURBPON-UHFFFAOYSA-N,"benzene, (trimethoxymethyl)-",2.911258845
,,1.311911041,0,0,18,736,1.682603264,0.999952326,0.601718396,C_{12}H_{18}O,"InChI=1S/C12H18O/c1-8(2)10-5-6-12(13)11(7-10)9(3)4/h5-9,13H,1-4H3",KEUMBYCOWGLRBQ-UHFFFAOYSA-N,"2,4-bis(1-methylethyl)phenol",2.359243183
,,1.379227138,0,0,18,665.3,0.21216499,0.834632444,2.813203791,C_{8}H_{10}O,"InChI=1S/C8H10O/c1-7-4-3-5-8(6-7)9-2/h3-6H,1-2H3",OSIGJGFTADMDOB-UHFFFAOYSA-N,1-methoxy-3-methylbenzene,3.772919528
,,1.434300188,0,0,18,734,0.799854923,0.952863408,1.313844042,C_{9}H_{10}O_{2},"InChI=1S/C9H10O2/c1-5-4-8(10)6(2)7(3)9(5)11/h4H,1-3H3",QIXDHVDGPXBRRD-UHFFFAOYSA-N,"1,4-benzoquinone, 2,3,5-trimethyl-",3.411653355
,,1.469454383,0,0,18,697,1.292423029,0.997314674,0.663946863,C_{10}H_{18}O_{2},"InChI=1S/C10H18O2/c1-9(2)7-11-10(12-8-9)5-3-4-6-10/h3-8H2,1-2H3",JOXSTTXXTNBJRU-UHFFFAOYSA-N,"6,10-dioxaspiro(4.5)decane, 8,8-dimethyl-",2.936771144
,,1.509283706,0,0,18,828,1.798090738,0.998427165,0.616866778,C_{6}H_{6}O_{2},"InChI=1S/C6H6O2/c7-5-1-2-6(8)4-3-5/h1-4,7-8H",QIGBRXMKCJKVMJ-UHFFFAOYSA-N,"1,4-benzenediol",6.249355915
,,1.549118254,0,0,18,674,0.769297675,0.922873431,1.676744047,C_{8}H_{9}Br,"InChI=1S/C8H9Br/c1-7(9)8-5-3-2-4-6-8/h2-7H,1H3",CRRUGYDDEMGVDY-UHFFFAOYSA-N,1-bromo-1-phenylethane,3.740116631
,,1.593468251,0,0,18,675.677,1.253769719,0.988348403,0.751762202,C_{10}H_{14},"InChI=1S/C10H14/c1-7-5-9(3)10(4)6-8(7)2/h5-6H,1-4H3",SQNZJJAZBFDUTD-UHFFFAOYSA-N,"1,2,4,5-tetramethylbenzene",2.86922428
,,1.626057655,0,0,18,516.21,0.194392071,0.808063056,3.391742153,C_{6}H_{4}F_{10}O,"InChI=1S/C6H4F10O/c7-2(5(12,13)14)6(15,16)17-1-4(10,11)3(8)9/h2-3H,1H2",DOESGSGKEZIPFW-UHFFFAOYSA-N,"1,1,1,2,3,3-hexafluoro-3-(2,2,3,3-tetrafluoropropoxy)propane",2.176079309
,,1.634741492,0,0,18,603,0.557577073,0.923695561,1.669339125,C_{8}H_{12},"InChI=1S/C8H12/c1-2-6-7-3-4-8(6)5(1)7/h5-8H,1-4H2",NVNHBPOLPPDKRC-UHFFFAOYSA-N,"tricyclo[3.3.0.0(2,6)]octane",4.814301984
,,1.806166547,0,0,18,633,1.493717645,0.999964441,0.499776461,C_{4}H_{4}N_{2},InChI=1S/C4H4N2/c1-2-5-4-6-3-1/h1-4H,CZPWVGJYEJSRLH-UHFFFAOYSA-N,"1,3-diazabenzene",6.625744298
,,1.838373842,0,0,18,730,1.048203666,0.999993846,0.862422515,C_{3}H_{5}Br_{3},"InChI=1S/C3H5Br3/c4-1-3(6)2-5/h3H,1-2H2",FHCLGDLYRUPKAM-UHFFFAOYSA-N,"1,2,3-tribromopropane",3.369508203
,,1.902653499,0,0,18,748,1.339978785,0.999994643,0.689758975,C_{13}H_{24},"InChI=1S/C13H24/c1-3-7-12(8-4-1)11-13-9-5-2-6-10-13/h12-13H,1-11H2",XXKOQQBKBHUATC-UHFFFAOYSA-N,dicyclohexylmethane,2.543321358
,,2.053220959,0,0,18,703,1.02670576,0.936183333,1.495138918,C_{10}H_{22}O_{3},"InChI=1S/C10H22O3/c1-2-3-4-5-7-12-9-10-13-8-6-11/h11H,2-10H2,1H3",GZMAAYIALGURDQ-UHFFFAOYSA-N,2-(2-hexyloxyethoxy)ethanol,2.335649236
,0.312793267,2.348457861,0,3,18,580.6,0.185430643,0.838441101,2.745126036,C_{6}H_{12}O,"InChI=1S/C6H12O/c1-4-5(2)6(3)7/h5H,4H2,1-3H3",UIHCLUNTQKBZGK-UHFFFAOYSA-N,3-methyl-2-pentanone,3.406473889
,0.001736091,2.498681892,0,2,18,593,0.468847027,0.755074179,1.314514689,C_{7}H_{14}O,"InChI=1S/C7H14O/c1-5-6(8)7(2,3)4/h5H2,1-4H3",VLNUTKMHYLQCQB-UHFFFAOYSA-N,"2,2-dimethyl-3-pentanone",3.295304476
,,2.555098726,0,0,18,538,0.550849787,0.915007113,1.750254329,C_{6}H_{12}O,"InChI=1S/C6H12O/c1-5-3-4-6(2)7-5/h5-6H,3-4H2,1-2H3",OXMIDRBAFOEOQT-UHFFFAOYSA-N,"2,5-dimethyltetrahydrofuran",3.659462204
0.146076136,1.165872636,2.585309174,32,1,18,528,0.238495288,0.839056366,2.140412234,C_{3}H_{6}Cl_{2},"InChI=1S/C3H6Cl2/c1-3(2,4)5/h1-2H3",ZEOVXNVKXIPWMS-UHFFFAOYSA-N,"2,2-dichloropropane",4.030862346
,,2.750089507,0,0,18,510.07,0.148353845,0.804306624,3.466927926,C_{5}H_{4}F_{8}O,"InChI=1S/C5H4F8O/c6-2(7)4(10,11)1-14-5(12,13)3(8)9/h2-3H,1H2",HCBRSIIGBBDDCD-UHFFFAOYSA-N,"1,1,2,2-tetrafluoro-3-(1,1,2,2-tetrafluoroethoxy)propane",2.580998431
,,2.935057727,0,0,18,537.1,0.461526254,0.922903282,1.675471307,C_{6}H_{10},"InChI=1S/C6H10/c1-3-5-6-4-2/h3-6H,1-2H3",APPOKADJQUIAHP-UHFFFAOYSA-N,"2,4-hexadiene",3.507472459
,,2.995859551,0,0,18,616,0.893011575,0.999981653,0.945471643,C_{6}H_{10}S,"InChI=1S/C6H10S/c1-3-5-7-6-4-2/h3-4H,1-2,5-6H2",UBJVUCKUDDKUJF-UHFFFAOYSA-N,"3,3'-thiobis-1-propene",3.254265452
,,3.036855664,0,0,18,645.05649,2.722147621,0.492783135,0.543495677,C_{9}H_{20}O,"InChI=1S/C9H20O/c1-3-5-6-8-9(10)7-4-2/h9-10H,3-8H2,1-2H3",IXUOEGRSQCCEHB-UHFFFAOYSA-N,4-nonanol,2.51441612
,0.142386244,3.113023274,0,1,18,459.61,1.159148529,0.999977478,0.869023937,C_{4}H_{4}F_{6}O,"InChI=1S/C4H4F6O/c1-11-2(3(5,6)7)4(8,9)10/h2H,1H3",VNXYDFNVQBICRO-UHFFFAOYSA-N,"1,1,1,3,3,3-hexafluoro-2-methoxypropane",2.699143448
,,3.48145652,0,0,18,691,0.210826733,0.806100527,3.442079684,C_{14}H_{28},"InChI=1S/C14H28/c1-3-5-7-9-11-13-14-12-10-8-6-4-2/h3H,1,4-14H2,2H3",HFDVRLIODXPAHB-UHFFFAOYSA-N,1-tetradecene,1.581139308
,,3.678996957,0,0,18,589,0.505939095,0.947366047,1.371111377,C_{7}H_{12},"InChI=1S/C7H12/c1-7-5-3-2-4-6-7/h3,5,7H,2,4,6H2,1H3",UZPWKTCMUADILM-UHFFFAOYSA-N,3-methylcyclohexene,3.979859193
,1.047963032,3.71946351,0,1,18,505.35,2.435538776,0.921905153,0.374017211,C_{4}H_{6}F_{4}O,"InChI=1S/C4H6F4O/c1-9-2-4(7,8)3(5)6/h3H,2H2,1H3",CTXZHYNQHNBVKL-UHFFFAOYSA-N,"1,1,2,2-tetrafluoro-3-methoxypropane",3.278115191
,,3.761878903,0,0,18,695,0.843859913,0.915106528,1.749265232,C_{7}H_{7}NO_{2},"InChI=1S/C7H7NO2/c1-10-7(9)6-4-2-3-5-8-6/h2-5H,1H3",NMMIHXMBOZYNET-UHFFFAOYSA-N,"2-pyridinecarboxylic acid, methyl ester",5.204921349
,1.084245724,3.95354337,0,1,18,486.98,2.559540329,0.748721814,0.413991382,C_{4}H_{4}F_{6}O,"InChI=1S/C4H4F6O/c1-11-4(9,10)3(7,8)2(5)6/h2H,1H3",CMRJNALMNDBXQC-UHFFFAOYSA-N,"1,1,2,2,3,3-hexafluoro-1-methoxypropane",2.900522624
,0.056612255,4.115466379,0,1,18,720,0.484564907,0.830364754,2.89631848,C_{15}H_{28}O_{2},"InChI=1S/C15H28O2/c1-3-4-5-6-7-8-9-10-11-12-13-14-17-15(2)16/h10-11H,3-9,12-14H2,1-2H3/b11-10-",DUCVQKMNGSZPAV-KHPPLWFESA-N,(Z)-tridec-4-enyl acetate,1.671597934