AAD_Csat,AAD_hfg,AAD_psat,N_Csat,N_hfg,N_psat,Tc_K,c0,c1,c2,formula,inchi,inchikey,name,pc_MPa
,,1.743413602,0,0,30,705,0.406547784,0.879690409,2.132677702,C_{9}H_{17}N,"InChI=1S/C9H17N/c1-2-6-9-8(4-1)5-3-7-10-9/h8-10H,1-7H2/t8-,9+/m1/s1",POTIYWUALSJREP-BDAKNGLRSA-N,trans-decahydroquinoline,3.83797013
,0.23322833,2.192485297,0,1,30,614.2,0.164227653,0.822029422,3.065065339,C_{4}H_{7}ClO_{2},"InChI=1S/C4H7ClO2/c1-2-7-4(6)3-5/h2-3H2,1H3",VEUUMBGHMNQHGO-UHFFFAOYSA-N,ethyl chloroethanoate,3.760899277
,,2.235332147,0,0,30,692.7141481,1.116536259,0.999942953,0.733173491,C_{7}H_{7}Br,"InChI=1S/C7H7Br/c1-6-4-2-3-5-7(6)8/h2-5H,1H3",QSSXJPIWXQTSIX-UHFFFAOYSA-N,2-bromotoluene,4.195404904
,,2.236387696,0,0,30,711,0.836353448,0.831357662,1.080158092,C_{11}H_{20}O_{2},"InChI=1S/C11H20O2/c1-10(2)8-12-11(13-9-10)6-4-3-5-7-11/h3-9H2,1-2H3",QIFSGRPJUXQGMD-UHFFFAOYSA-N,"1,5-dioxaspiro[5.5]undecane, 3,3-dimethyl-",2.812654974
,0.601192665,2.432348908,0,6,30,523.06,0.208404351,0.841937931,2.683423851,C_{6}H_{15}N,"InChI=1S/C6H15N/c1-5(2)7-6(3)4/h5-7H,1-4H3",UAOMVDZJSHZZME-UHFFFAOYSA-N,diisopropylamine,3.021627101
,,2.491552194,0,0,30,593,0.812874039,0.464809039,0.973212077,C_{7}H_{16}O,"InChI=1S/C7H16O/c1-5(2)7(8)6(3)4/h5-8H,1-4H3",BAYAKMPRFGNNFW-UHFFFAOYSA-N,"2,4-dimethyl-3-pentanol",3.177227332
,,2.650953223,0,0,30,777,1.705611266,0.999964625,0.941485095,C_{18}H_{34}O_{4},"InChI=1S/C18H34O4/c1-3-5-15-21-17(19)13-11-9-7-8-10-12-14-18(20)22-16-6-4-2/h3-16H2,1-2H3",PYGXAGIECVVIOZ-UHFFFAOYSA-N,dibutyl decanedioate,1.123238812
,,2.926513392,0,0,30,668,1.088914221,0.575728203,0.892715051,C_{7}H_{14}O,"InChI=1S/C7H14O/c8-7-5-3-1-2-4-6-7/h7-8H,1-6H2",QCRFMSUKWRQZEM-UHFFFAOYSA-N,cycloheptanol,4.094359959
,,3.457743972,0,0,30,716,0.598136829,0.787410164,1.208288835,C_{8}H_{10}S,"InChI=1S/C8H10S/c1-2-9-8-6-4-3-5-7-8/h3-7H,2H2,1H3",AEHWKBXBXYNPCX-UHFFFAOYSA-N,(ethylthio)benzene,3.669594251
,0.180764073,3.765573591,0,1,30,608.8,0.14557156,0.820136614,2.931237802,C_{6}H_{14}S,"InChI=1S/C6H14S/c1-3-5-6-7-4-2/h3-6H2,1-2H3",XJIRSLHMKBUGMR-UHFFFAOYSA-N,3-thiaheptane,2.985285686
,0.2975424,3.771963908,0,1,30,574.5,0.104715696,0.828231563,2.920719198,C_{5}H_{12}S,"InChI=1S/C5H12S/c1-4-6-5(2)3/h5H,4H2,1-3H3",NZUQQADVSXWVNW-UHFFFAOYSA-N,2-methyl-3-thiapentane,3.569808531
,,5.150293353,0,0,30,710,0.333553795,0.746764535,2.025749074,C_{10}H_{14}O,"InChI=1S/C10H14O/c1-3-8(2)9-6-4-5-7-10(9)11/h4-8,11H,3H2,1-2H3",NGFPWHGISWUQOI-UHFFFAOYSA-N,2-(1-methylpropyl)phenol,2.975616508
0.729202707,,7.290579161,57,0,30,474.888,0.997923951,0.910005627,0.744413844,C_{5}H_{10},"InChI=1S/C5H10/c1-3-5-4-2/h3,5H,4H2,1-2H3/b5-3-",QMMOXUPEWRXHJS-HYXAFXHYSA-N,(Z)-2-pentene,3.689074067
,,8.932377944,0,0,30,579,1.862115017,0.99946479,0.826938859,C_{7}HF_{13}O_{2},"InChI=1S/C7HF13O2/c8-2(9,1(21)22)3(10,11)4(12,13)5(14,15)6(16,17)7(18,19)20/h(H,21,22)",ZWBAMYVPMDSJGQ-UHFFFAOYSA-N,perfluoroheptanoic acid,1.872060596
,,10.41678221,0,0,30,613,0.788181427,0.895882636,1.945300457,C_{5}H_{13}O_{3}P,"InChI=1S/C5H13O3P/c1-4-7-9(3,6)8-5-2/h4-5H2,1-3H3",NYYLZXREFNYPKB-UHFFFAOYSA-N,"O,O-diethyl methylphosphonate",2.917093189
,,11.0590633,0,0,30,738.7,0.883643415,0.878926318,2.142098982,C_{18}H_{36}O_{2},"InChI=1S/C18H36O2/c1-3-5-6-7-8-9-10-11-12-13-14-15-16-17-18(19)20-4-2/h3-17H2,1-2H3",XIRNKXNNONJFQO-UHFFFAOYSA-N,ethyl hexadecanoate,1.260289315
,0.305265117,14.15506195,0,1,30,844,1.00581374,0.9765746,1.134017541,C_{14}H_{12},"InChI=1S/C14H12/c1-10-5-4-8-13-12-7-3-2-6-11(12)9-14(10)13/h2-8H,9H2,1H3",GKEUODMJRFDLJY-UHFFFAOYSA-N,1-methyl-9H-fluorene,3.403732425
,0.062057737,39.30805214,0,1,30,784,1.274613013,0.995921522,0.811358617,C_{13}H_{12},"InChI=1S/C13H12/c1-11-7-9-13(10-8-11)12-5-3-2-4-6-12/h2-10H,1H3",ZZLCFHIKESPLTH-UHFFFAOYSA-N,4-methylbiphenyl,3.144192256
,,0.023301515,0,0,29,507,0.370349144,0.813563226,1.841204291,C_{3}Cl_{3}F_{5}O,"InChI=1S/C3Cl3F5O/c4-1(5,7)2(8,9)12-3(6,10)11",LWQARWCIQAGKRZ-UHFFFAOYSA-N,"ethane, 1,1-dichloro-2-(chlorodifluoromethoxy)-1,2,2-trifluoro-",2.698636811
,,0.132262274,0,0,29,857,0.774446783,0.850601622,1.182170614,C_{12}H_{12}S,"InChI=1S/C12H12S/c1-3-7-11-9(5-1)10-6-2-4-8-12(10)13-11/h1,3,5,7H,2,4,6,8H2",JCLPOPNXITXHOR-UHFFFAOYSA-N,"1,2,3,4-tetrahydrodibenzothiophene",2.945596025
,,0.139118305,0,0,29,889,1.295803119,0.999973373,0.795073298,C_{16}H_{16},"InChI=1S/C16H16/c1-3-11-7-9-13-5-2-6-14-10-8-12(4-1)15(11)16(13)14/h7-10H,1-6H2",MBAIEZXRGAOPKH-UHFFFAOYSA-N,"1,2,3,6,7,8-hexahydropyrene",2.249390738
,,0.192571746,0,0,29,564,0.53472322,0.83801855,1.243575468,C_{8}H_{16},"InChI=1S/C8H16/c1-7-4-5-8(2,3)6-7/h7H,4-6H2,1-3H3",OBKHYUIZSOIEPG-UHFFFAOYSA-N,"1,1,3-trimethylcyclopentane",2.970581895
,,0.359763001,0,0,29,501.9,1.119004752,0.997007412,0.680530076,C_{6}H_{12},"InChI=1S/C6H12/c1-4-5-6(2)3/h2,4-5H2,1,3H3",WWUVJRULCWHUSA-UHFFFAOYSA-N,2-methyl-1-pentene,3.162017654
,,0.495556226,0,0,29,495,0.135556137,0.837711572,2.758124634,C_{2}H_{2}Cl_{2}F_{2},"InChI=1S/C2H2Cl2F2/c3-1-2(4,5)6/h1H2",SKDFWEPBABSFMG-UHFFFAOYSA-N,"1,1-difluoro-1,2-dichloroethane",4.418860517
,,0.522149512,0,0,29,516,0.671841718,0.925132868,1.155087751,C_{7}H_{14},"InChI=1S/C7H14/c1-5-6-7(2,3)4/h5H,1,6H2,2-4H3",KLCNJIQZXOQYTE-UHFFFAOYSA-N,"4,4-dimethyl-1-pentene",3.094190787
,,0.625266261,0,0,29,594.8,0.268898077,0.818100537,2.054044117,C_{3}H_{7}NO_{2},"InChI=1S/C3H7NO2/c1-3(2)4(5)6/h3H,1-2H3",FGLBSLMDCBOPQK-UHFFFAOYSA-N,2-nitropropane,3.838309233
0.424117025,0.135628831,0.94630324,19,1,29,666.9,0.301888978,0.848686862,2.396368614,C_{6}H_{13}I,"InChI=1S/C6H13I/c1-2-3-4-5-6-7/h2-6H2,1H3",ANOOTOPTCJRUPK-UHFFFAOYSA-N,1-iodohexane,3.449923339
,,0.992728533,0,0,29,709,1.094957123,0.998916751,0.728916342,C_{10}H_{20},InChI=1S/C10H20/c1-2-4-6-8-10-9-7-5-3-1/h1-10H2,LMGZGXSXHCMSAA-UHFFFAOYSA-N,cyclodecane,3.214008697
0.312635847,,1.304348877,20,0,29,515.5,0.231764415,0.819370006,1.765585939,C_{2}H_{2}Cl_{2},InChI=1S/C2H2Cl2/c3-1-2-4/h1-2H/b2-1+,KFUSEUYYWQURPO-OWOJBTEDSA-N,"(E)-1,2-dichloroethene",5.200102397
0.283036994,,1.430550864,22,0,29,490.3,0.747772944,0.846792761,0.885144016,C_{5}H_{8},"InChI=1S/C5H8/c1-3-5-4-2/h3-5H,1H2,2H3/b5-4-",PMJHHCWVYXUKFD-PLNGDYQASA-N,"(Z)-1,3-pentadiene",4.034207843
,0.012870891,1.451975257,0,1,29,745,0.950139155,0.845265619,0.855742269,C_{6}H_{6}OS,"InChI=1S/C6H6OS/c1-5(7)6-3-2-4-8-6/h2-4H,1H3",WYJOVVXUZNRJQY-UHFFFAOYSA-N,2-acetylthiophene,4.685581791
,,1.616664799,0,0,29,568,0.878602419,0.939771689,1.450767414,C_{5}H_{4}F_{8}O,"InChI=1S/C5H4F8O/c6-2(7)4(10,11)5(12,13)3(8,9)1-14/h2,14H,1H2",JUGSKHLZINSXPQ-UHFFFAOYSA-N,"2,2,3,3,4,4,5,5-octafluoro-1-pentanol",2.584254911
0.212579684,,2.326454943,21,0,29,498.4,1.179422462,0.944502572,0.568367874,C_{5}H_{8},"InChI=1S/C5H8/c1-3-5-4-2/h5H,1,4H2,2H3",LVMTVPFRTKXRPH-UHFFFAOYSA-N,"1,2-pentadiene",4.512528916
,,2.440165118,0,0,29,544,0.433791814,0.848159671,2.283341305,C_{9}F_{20},"InChI=1S/C9F20/c10-1(4(13,14)9(27,28)29,2(11,5(15,16)17)6(18,19)20)3(12,7(21,22)23)8(24,25)26",GEXSLRJJTOFEMA-UHFFFAOYSA-N,"1,1,1,2,2,3,4,5,5,5-decafluoro-3-[1,2,2,2-tetrafluoro-1-(trifluoromethyl)ethyl]-4-(trifluoromethyl)pentane",2.01231967
,,2.575336168,0,0,29,664,0.261381022,0.797727508,3.669058304,C_{11}H_{24}O,"InChI=1S/C11H24O/c1-3-4-5-6-7-8-9-10-11(2)12/h11-12H,3-10H2,1-2H3",XMUJIPOFTAHSOK-UHFFFAOYSA-N,(.+-.)-2-undecanol,2.121687225
,,3.281668421,0,0,29,731,0.979991687,0.964034001,1.222429441,C_{10}H_{14}O,"InChI=1S/C10H14O/c1-3-8-5-9(4-2)7-10(11)6-8/h5-7,11H,3-4H2,1-2H3",LPCJHUPMQKSPDC-UHFFFAOYSA-N,"3,5-diethylphenol",2.991514434
,,3.292597024,0,0,29,692,1.085995894,0.999950851,0.80205004,C_{7}H_{7}Br,"InChI=1S/C7H7Br/c1-6-3-2-4-7(8)5-6/h2-5H,1H3",WJIFKOVZNJTSGO-UHFFFAOYSA-N,1-bromo-3-methylbenzene,3.873402404
0.235226758,0.723578115,3.293159599,5,1,29,679,0.707442451,0.870977105,1.293362011,C_{10}H_{14},"InChI=1S/C10H14/c1-7-5-8(2)10(4)9(3)6-7/h5-6H,1-4H3",BFIMMTCNYPIMRN-UHFFFAOYSA-N,"1,2,3,5-tetramethylbenzene",2.944239775
,,3.396459349,0,0,29,700,1.589857398,0.999743387,0.615138867,C_{9}H_{17}N,"InChI=1S/C9H17N/c1-2-3-4-5-6-7-8-9-10/h2-8H2,1H3",PLZZPPHAMDJOSR-UHFFFAOYSA-N,nonanenitrile,2.619141754
,0.018309394,3.608297524,0,1,29,593.3,1.3142073,0.999100447,0.755356559,C_{7}H_{14}O_{2},"InChI=1S/C7H14O2/c1-3-5-6-7(8)9-4-2/h3-6H2,1-2H3",ICMAFTSLXCXHRK-UHFFFAOYSA-N,ethyl pentanoate,2.762461729
,,4.600485856,0,0,29,765,1.873278644,0.309549392,0.555772596,C_{4}H_{6}N_{2}O_{2},InChI=1S/C4H6N2O2/c1-3-4(2)6(7)8-5-3/h1-2H3,YQPMTPLDOVSQDU-UHFFFAOYSA-N,"1,2,5-oxadiazole, 3,4-dimethyl-, 2-oxide",4.238034811
,,5.448861992,0,0,29,658.5,1.445461315,0.995093114,0.709200209,C_{9}H_{18}O,"InChI=1S/C9H18O/c1-2-3-4-5-6-7-8-9-10/h9H,2-8H2,1H3",GYHFUZHODSMOHU-UHFFFAOYSA-N,nonanal,2.681326238
,0.730696024,5.933658813,0,22,29,651,2.55553029,0.999743475,0.32593087,C_{4}H_{12}N_{2},InChI=1S/C4H12N2/c5-3-1-2-4-6/h1-6H2,KIDHWZJUCRJVML-UHFFFAOYSA-N,"1,4-butanediamine",4.482679284
0.712645566,,9.717387929,20,0,29,763,1.678581495,0.999981976,0.696060357,C_{8}H_{8}O_{2},"InChI=1S/C8H8O2/c1-6-4-2-3-5-7(6)8(9)10/h2-5H,1H3,(H,9,10)",ZWLPBLYKEWSWPD-UHFFFAOYSA-N,2-methylbenzoic acid,4.02603563
,,0.009759432,0,0,28,608,0.220627573,0.82814642,2.680554695,C_{3}Cl_{5}F_{3}O,"InChI=1S/C3Cl5F3O/c4-1(5,9)2(10,11)12-3(6,7)8",RYVYLYKKFUWOGA-UHFFFAOYSA-N,"trichloromethyl 2,2-dichloro-1,1,2-trifluoroethyl ether",2.613405004
,,0.012390663,0,0,28,564,0.228338457,0.82344607,2.773395785,C_{4}Cl_{4}F_{6}O,"InChI=1S/C4Cl4F6O/c5-1(9,2(10,11)12)3(13,14)15-4(6,7)8",CGUKJIYDMJSQOD-UHFFFAOYSA-N,"trichloromethyl 2-chloro-1,1,2,3,3,3-hexafluoropropyl ether",2.167814753
,,0.017697497,0,0,28,607,0.295604629,0.809951424,2.554536522,C_{5}Cl_{5}F_{7}O,"InChI=1S/C5Cl5F7O/c6-2(7,13)5(16,17)18-3(8,9)1(11,12)4(10,14)15",CIARXPIAQOCSCO-UHFFFAOYSA-N,"propane, 1,1,3-trichloro-1-(2,2-dichloro-1,1,2-trifluoroethoxy)-2,2,3,3-tetrafluoro-",1.686350966
,,0.21129603,0,0,28,697,0.394336397,0.845124385,2.629044003,C_{10}H_{22}O_{2},"InChI=1S/C10H22O2/c1-5-9(11,6-2)10(12,7-3)8-4/h11-12H,5-8H2,1-4H3",HDXDBVSPBNTNNA-UHFFFAOYSA-N,"3,4-diethyl-3,4-hexanediol",2.516516338
,,0.310034264,0,0,28,744,1.040168552,0.899172613,1.218714508,C_{10}H_{10}O_{3},"InChI=1S/C10H10O3/c1-7(11)9-5-3-4-6-10(9)13-8(2)12/h3-6H,1-2H3",WWEDAIJJBDFOOK-UHFFFAOYSA-N,2'-acetoxyacetophenone,2.910080059
,,0.377459522,0,0,28,783,0.808623238,0.901202861,1.452895387,C_{8}H_{7}IO,"InChI=1S/C8H7IO/c1-6(10)7-2-4-8(9)5-3-7/h2-5H,1H3",JZJWCDQGIPQBAO-UHFFFAOYSA-N,para-iodoacetophenone,3.67797092
,0.168934143,0.498371521,0,4,28,609,0.17891624,0.847270326,2.593465706,C_{2}H_{3}Cl_{3},"InChI=1S/C2H3Cl3/c3-1-2(4)5/h2H,1H2",UBOXGVDOUJQMTN-UHFFFAOYSA-N,"1,1,2-trichloroethane",5.352167513
0.122364604,0.195774838,0.509508081,26,4,28,536.94,0.420426402,0.821636157,1.340821014,C_{3}H_{7}Br,"InChI=1S/C3H7Br/c1-2-3-4/h2-3H2,1H3",CYNYIHKIEHGYOZ-UHFFFAOYSA-N,1-bromopropane,4.26746939
,,0.526581382,0,0,28,376.75,0.462879029,0.923654075,1.669520087,C_{2}F_{6}S,"InChI=1S/C2F6S/c3-1(4,5)9-2(6,7)8",OFHCXWMZXQBQMH-UHFFFAOYSA-N,"methane, thiobis[trifluoro-",3.162742982
,,0.613867746,0,0,28,577.6,1.114621602,0.93887094,0.855322601,C_{7}H_{14}O_{2},"InChI=1S/C7H14O2/c1-4-6(3)7(8)9-5-2/h6H,4-5H2,1-3H3",HCRBXQFHJMCTLF-UHFFFAOYSA-N,ethyl 2-methylbutanoate,2.559494557
,,0.660401388,0,0,28,539,0.720112784,0.896547235,0.976958392,C_{4}H_{6}O,"InChI=1S/C4H6O/c1-4(2)3-5/h3H,1H2,2H3",STNJBCKSHOAVAJ-UHFFFAOYSA-N,2-methyl-2-propenal,5.169231822
,,0.661586034,0,0,28,716,1.443025082,0.999720844,0.653596004,C_{10}H_{14}O,"InChI=1S/C10H14O/c1-7(2)9-6-4-5-8(3)10(9)11/h4-7,11H,1-3H3",KFETUQFRWIVAMU-UHFFFAOYSA-N,2-methyl-6-(1-methylethyl)phenol,2.839851974
,,0.716819457,0,0,28,538.2,1.381886893,0.470736262,0.862459208,C_{4}H_{10}O,"InChI=1S/C4H10O/c1-3-4(2)5/h4-5H,3H2,1-2H3/t4-/m0/s1",BTANRVKWQNVYAZ-BYPYZUCNSA-N,S(+)-2-butanol,4.285346588
,,0.769002176,0,0,28,730,0.62553466,0.806237128,1.632979164,C_{9}H_{10}O_{3},"InChI=1S/C9H10O3/c1-11-8-5-3-7(4-6-8)9(10)12-2/h3-6H,1-2H3",DDIZAANNODHTRB-UHFFFAOYSA-N,"4-methoxybenzoic acid, methyl ester",2.037912545
,,0.862410493,0,0,28,694,0.596437421,0.886673219,2.04892204,C_{10}H_{14}O,"InChI=1S/C10H14O/c1-7(2)9-5-4-8(3)10(11)6-9/h4,9H,1,5-6H2,2-3H3/t9-/m1/s1",ULDHMXUKGWMISQ-SECBINFHSA-N,l-carvone,2.877475996
0.159494499,,1.084229519,14,0,28,557,1.402022516,0.999999304,0.469644917,C_{7}H_{14},"InChI=1S/C7H14/c1-7(2)5-3-4-6-7/h3-6H2,1-2H3",QWHNJUXXYKPLQM-UHFFFAOYSA-N,"1,1-dimethylcyclopentane",3.685819133
,,1.243301597,0,0,28,520.31,1.162603253,0.999862906,0.640174286,C_{2}H_{6}Cl_{2}Si,"InChI=1S/C2H6Cl2Si/c1-5(2,3)4/h1-2H3",LIKFHECYJZWXFJ-UHFFFAOYSA-N,dichlorodimethylsilane,3.480079666
,,1.481614907,0,0,28,875,1.253410433,0.984328884,1.085490392,C_{10}H_{6}N_{2}O_{4},InChI=1S/C10H6N2O4/c13-11(14)9-5-1-3-7-8(9)4-2-6-10(7)12(15)16/h1-6H,ZUTCJXFCHHDFJS-UHFFFAOYSA-N,"1,5-dinitronaphthalene",2.68566816
,,1.746720496,0,0,28,848,1.947352436,0.402055884,0.461417305,C_{9}H_{16}N_{2},"InChI=1S/C9H16N2/c1-2-3-4-5-7-11-8-6-10-9-11/h6,8-9H,2-5,7H2,1H3",KGWVFQAPOGAVRF-UHFFFAOYSA-N,1-hexylimidazole,3.848095921
,,1.784739494,0,0,28,779.3,0.212321012,0.836389651,2.782135987,C_{5}H_{9}NO_{2},"InChI=1S/C5H9NO2/c7-5-6-1-3-8-4-2-6/h5H,1-4H2",LCEDQNDDFOCWGG-UHFFFAOYSA-N,N-formylmorpholine,5.058910738
1.187322711,0.440359679,2.370735748,83,50,28,340.062976,0.437682353,0.838512348,1.144751974,CBrF_{3},"InChI=1S/CBrF3/c2-1(3,4)5",RJCQBQGAPKAMLL-UHFFFAOYSA-N,bromotrifluoromethane,3.96201898
,,2.374864634,0,0,28,261.0904246,0.460990934,0.905086677,1.41387905,O_{3},InChI=1S/O3/c1-3-2,CBENFWSGALASAD-UHFFFAOYSA-N,ozone,6.018557555
,,2.420758048,0,0,28,694.5,1.669265369,0.987423003,0.685737138,C_{13}H_{26}O,"InChI=1S/C13H26O/c1-11(2)7-5-8-12(3)9-6-10-13(4)14/h11-12H,5-10H2,1-4H3",RBGLEUBCAJNCTR-UHFFFAOYSA-N,"2,6-dimethylundecane-10-one",1.41382653
,,2.650660887,0,0,28,612,1.156977934,0.999935539,0.866494754,C_{5}H_{9}ClO_{2},"InChI=1S/C5H9ClO2/c1-4(2)8-5(7)3-6/h4H,3H2,1-2H3",VODRWDBLLGYRJT-UHFFFAOYSA-N,isopropyl chloroethanoate,3.345216022
,,2.760807152,0,0,28,694.1717,1.823212083,0.524273056,0.656036858,C_{10}H_{20}O,"InChI=1S/C10H20O/c1-7(2)9-5-4-8(3)6-10(9)11/h7-11H,4-6H2,1-3H3/t8-,9+,10-/m1/s1",NOOLISFMXDJSKH-KXUCPTDWSA-N,DL-menthol,2.665732357
0.30952103,,2.809717866,12,0,28,656.9,0.407169103,0.810319666,1.629702831,C_{7}H_{5}NO,InChI=1S/C7H5NO/c9-6-8-7-4-2-1-3-5-7/h1-5H,DGTNSSLYPYDJGL-UHFFFAOYSA-N,phenyl isocyanate,3.730218149
,0.054710371,2.878345554,0,1,28,674,1.327898049,0.999883492,0.700457087,C_{11}H_{22},"InChI=1S/C11H22/c1-2-3-5-8-11-9-6-4-7-10-11/h11H,2-10H2,1H3",HLTMUYBTNSVOFY-UHFFFAOYSA-N,pentylcyclohexane,2.398075868
,,3.197996855,0,0,28,657,1.534790046,0.998019798,0.547377535,C_{10}H_{14},"InChI=1S/C10H14/c1-8(2)10-7-5-4-6-9(10)3/h4-8H,1-3H3",WWRCMNKATXZARA-UHFFFAOYSA-N,1-isopropyl-2-methylbenzene,2.893197831
,0.121344468,3.406597871,0,1,28,614,0.884785305,0.881748422,1.134850599,C_{9}H_{18}O_{2},"InChI=1S/C9H18O2/c1-5-7-8(10)11-9(3,4)6-2/h5-7H2,1-4H3",VTZSXMMBJHMLEE-UHFFFAOYSA-N,"1,1-dimethylpropyl butanoate",2.283466804
,0.032476554,3.588574875,0,1,28,661,0.73251486,0.893316405,0.878187241,C_{5}H_{9}N_{3},"InChI=1S/C5H9N3/c6-8-7-5-3-1-2-4-5/h5H,1-4H2",SSJIACUDWJVGLB-UHFFFAOYSA-N,cyclopentyl azide,5.757811747
,,3.841607707,0,0,28,592,1.818229589,0.449013366,0.714780523,C_{6}H_{14}O,"InChI=1S/C6H14O/c1-6(2,3)4-5-7/h7H,4-5H2,1-3H3",DUXCSEISVMREAX-UHFFFAOYSA-N,"3,3-dimethyl-1-butanol",3.3207454
,0.161259581,4.553598749,0,1,28,528,2.16915037,0.558980528,0.683245397,C_{5}H_{3}F_{9}O,"InChI=1S/C5H3F9O/c6-2(7,1-15)3(8,9)4(10,11)5(12,13)14/h15H,1H2",PJRIQFXPYMVWOU-UHFFFAOYSA-N,"2,2,3,3,4,4,5,5,5-nonafluoropentan-1-ol",2.45623
,0.699412121,5.9387015,0,3,28,662,1.344078147,0.97306402,0.745537367,C_{9}H_{16}O_{2},"InChI=1S/C9H16O2/c1-2-9(10)11-8-6-4-3-5-7-8/h8H,2-7H2,1H3",MAMMVUWCKMOLSG-UHFFFAOYSA-N,cyclohexyl propanoate,2.857963304
,,6.267885002,0,0,28,418.1,0.775404945,0.859362744,0.774844166,CH_{2}O,InChI=1S/CH2O/c1-2/h1H2,WSFSSNUMVMOOMR-UHFFFAOYSA-N,methanal,6.933860609
,,8.329952996,0,0,28,777,1.336386493,0.703524611,0.732492173,C_{15}H_{16},"InChI=1S/C15H16/c1-2-15(13-9-5-3-6-10-13)14-11-7-4-8-12-14/h3-12,15H,2H2,1H3",BUZMJVBOGDBMGI-UHFFFAOYSA-N,"1,1-diphenylpropane",2.397572338
0.364614522,1.545300338,8.726538242,41,2,28,675.9,1.005466426,0.843669805,0.859982644,C_{6}H_{14}S_{2},"InChI=1S/C6H14S2/c1-3-5-7-8-6-4-2/h3-6H2,1-2H3",ALVPFGSHPUPROW-UHFFFAOYSA-N,"4,5-dithiaoctane",2.826487345
,,9.778395116,0,0,28,728,1.15993252,0.748249153,1.283925272,C_{11}H_{22}O_{2},"InChI=1S/C11H22O2/c1-2-3-4-5-6-7-8-9-10-11(12)13/h2-10H2,1H3,(H,12,13)",ZDPHROOEEOARMN-UHFFFAOYSA-N,undecanoic acid,2.130574247
,,11.89493217,0,0,28,675,1.537530284,0.998959683,0.500796138,C_{9}H_{10},"InChI=1S/C9H10/c1-2-6-9-7-4-3-5-8-9/h2-8H,1H3",QROGIFZRVHSFLM-UHFFFAOYSA-N,1-propenylbenzene,3.421758714
,,13.0397995,0,0,28,710,0.803479231,0.883661992,2.084508899,C_{9}H_{20}O_{4},"InChI=1S/C9H20O4/c1-7(11)5-12-9(3)6-13-8(2)4-10/h7-11H,4-6H2,1-3H3",LCZVSXRMYJUNFX-UHFFFAOYSA-N,2-[2-(2-hydroxypropoxy)propoxy]-1-propanol,3.489351287
,,17.72486303,0,0,28,678,0,0.171156597,0.866249529,C_{4}H_{10}OS,"InChI=1S/C4H10OS/c1-2-6-4-3-5/h5H,2-4H2,1H3",LNRIEBFNWGMXKP-UHFFFAOYSA-N,2-(ethylthio)ethanol,3.647584867
,,0.007088204,0,0,27,883,0.646068404,0.826512502,1.463998687,C_{16}H_{14},"InChI=1S/C16H14/c1-3-11-7-9-13-5-2-6-14-10-8-12(4-1)15(11)16(13)14/h1-6H,7-10H2",XDFUNRTWHPWCKO-UHFFFAOYSA-N,"4,5,9,10-tetrahydropyrene",2.428576961
,,0.0747171,0,0,27,530.9,0.213724093,0.848508616,2.573200732,C_{6}H_{3}F_{3},InChI=1S/C6H3F3/c7-4-1-5(8)3-6(9)2-4/h1-3H,JXUKFFRPLNTYIV-UHFFFAOYSA-N,"1,3,5-trifluorobenzene",3.929372473
,,0.119679208,0,0,27,577,0.559517832,0.840554961,1.248448456,C_{8}H_{16},"InChI=1S/C8H16/c1-6-4-7(2)8(3)5-6/h6-8H,4-5H2,1-3H3/t6-,7-,8+",PNUFYSGVPVMNRN-WHUPJOBBSA-N,"1,cis-2,trans-4-trimethylcyclopentane",2.867665522
,,0.201456708,0,0,27,772,0.43606609,0.843072256,2.55119867,C_{8}H_{7}NO_{4},"InChI=1S/C8H7NO4/c1-13-8(10)6-2-4-7(5-3-6)9(11)12/h2-5H,1H3",YOJAHJGBFDPSDI-UHFFFAOYSA-N,methyl p-nitrobenzoate,3.00988343
,,0.240463728,0,0,27,867,1.398241646,0.983124457,0.828917641,C_{7}H_{8}N_{2}O,"InChI=1S/C7H8N2O/c1-8-7(10)6-3-2-4-9-5-6/h2-5H,1H3,(H,8,10)",ZYVXHFWBYUDDBM-UHFFFAOYSA-N,N-methylnicotinamide,4.947802431
,,0.306556981,0,0,27,527,0.620033767,0.844221427,1.142153791,C_{7}H_{14},"InChI=1S/C7H14/c1-6(2)5-7(3)4/h7H,1,5H2,2-4H3",LXQPBCHJNIOMQU-UHFFFAOYSA-N,"2,4-dimethyl-1-pentene",2.961728006
,,0.600917663,0,0,27,679,0.386550305,0.848834485,2.567902424,C_{6}H_{3}F_{2}NO_{2},InChI=1S/C6H3F2NO2/c7-4-1-2-5(8)6(3-4)9(10)11/h1-3H,XNJAYQHWXYJBBD-UHFFFAOYSA-N,"2,5-difluoronitrobenzene",3.702825315
,,0.647290159,0,0,27,563.6,0.397152631,0.818321525,1.555363628,C_{8}H_{16},"InChI=1S/C8H16/c1-5-6-7-8(2,3)4/h6-7H,5H2,1-4H3/b7-6-",JPLZSSHKQZJYTJ-SREVYHEPSA-N,"(Z)-2,2-dimethyl-3-hexene",3.0681407
,,0.675331068,0,0,27,700.96966,1.09853317,0.99998791,0.854207823,C_{8}H_{10}O,"InChI=1S/C8H10O/c1-6-4-3-5-7(2)8(6)9/h3-5,9H,1-2H3",NXXYKOUNUYWIHA-UHFFFAOYSA-N,"2,6-dimethylphenol",3.754698973
,,0.717659125,0,0,27,509,0.715161298,0.901159342,1.104280372,C_{6}H_{12},"InChI=1S/C6H12/c1-3-5-6-4-2/h3,5H,4,6H2,1-2H3/b5-3+",RYPKRALMXUUNKS-HWKANZROSA-N,(E)-2-hexene,3.295329797
,,0.795624561,0,0,27,646,1.166611322,0.999727802,0.770905867,C_{4}H_{8}Br_{2},"InChI=1S/C4H8Br2/c1-4(6)2-3-5/h4H,2-3H2,1H3",XZNGUVQDFJHPLU-UHFFFAOYSA-N,"1,3-dibromobutane",2.60675288
,,0.939989655,0,0,27,820,0.930414634,0.93081763,1.434138436,C_{13}H_{10}O_{3},InChI=1S/C13H10O3/c14-13(15-11-7-3-1-4-8-11)16-12-9-5-2-6-10-12/h1-10H,ROORDVPLFPIABK-UHFFFAOYSA-N,diphenyl carbonate,4.066072162
,,1.035642479,0,0,27,497.71,0.407299809,0.850051652,1.5632024,C_{3}H_{9}ClSi,"InChI=1S/C3H9ClSi/c1-5(2,3)4/h1-3H3",IJOOHPMOJXWVHK-UHFFFAOYSA-N,chlorotrimethylsilane,3.201041591
,,1.101821452,0,0,27,700,0.420496339,0.858475864,2.418862619,C_{9}H_{10}O_{2},"InChI=1S/C9H10O2/c1-7-3-5-8(6-4-7)9(10)11-2/h3-6H,1-2H3",QSSJZLPUHJDYKF-UHFFFAOYSA-N,methyl 4-methylbenzoate,3.137320435
,,1.153184955,0,0,27,776,1.343972165,0.965033531,0.692060272,C_{10}H_{9}N,"InChI=1S/C10H9N/c1-8-6-9-4-2-3-5-10(9)7-11-8/h2-7H,1H3",FVVXWRGARUACNW-UHFFFAOYSA-N,3-methylisoquinoline,3.846417909