AAD_Csat,AAD_hfg,AAD_psat,N_Csat,N_hfg,N_psat,Tc_K,c0,c1,c2,formula,inchi,inchikey,name,pc_MPa
,,1.964733891,0,0,57,651,0.974303948,0.941902447,1.426217678,C_{5}H_{8}O_{2},"InChI=1S/C5H8O2/c1-4(2)3-5(6)7/h3H,1-2H3,(H,6,7)",YYPNJNDODFVZLE-UHFFFAOYSA-N,3-methyl-2-butenoic acid,3.538798515
0.119592657,0.58566234,2.557998241,42,1,57,653.1,0.567141297,0.833110316,1.423961047,C_{10}H_{20},"InChI=1S/C10H20/c1-2-3-7-10-8-5-4-6-9-10/h10H,2-9H2,1H3",GGBJHURWWWLEQH-UHFFFAOYSA-N,butylcyclohexane,2.552161436
,1.273944227,3.85668434,0,2,57,640,0.697232688,0.900474863,1.895952111,C_{10}H_{16}O,"InChI=1S/C10H16O/c1-5-10(4,11)8-6-7-9(2)3/h1,7,11H,6,8H2,2-4H3",YWTIDNZYLFTNQQ-UHFFFAOYSA-N,"3,7-dimethyl-6-octen-1-yn-3-ol",2.488380183
,,0.242805968,0,0,56,626,1.129511635,0.999815049,0.674381319,C_{8}H_{14},"InChI=1S/C8H14/c1-2-4-8-6-5-7(8)3-1/h7-8H,1-6H2",RPZUBXWEQBPUJR-UHFFFAOYSA-N,bicyclo[4.2.0]octane,3.704055932
,,0.467819566,0,0,56,356.85,0.396826827,0.851340638,1.878509147,C_{3}F_{8}O,"InChI=1S/C3F8O/c4-1(5,6)2(7,8)12-3(9,10)11",NCUVQJKPUJYKHX-UHFFFAOYSA-N,pentafluoro(trifluoromethoxy)ethane,2.353633369
,0.405114025,0.981716857,0,7,56,595,0.179813246,0.847628465,2.587591545,C_{8}H_{16},"InChI=1S/C8H16/c1-3-8(2)6-4-5-7-8/h3-7H2,1-2H3",LETYIFNDQBJGPJ-UHFFFAOYSA-N,1-ethyl-1-methylcyclopentane,3.33301652
,0.325630733,1.436733144,0,4,56,533.6,0,0.220449599,0.746165683,C_{4}H_{11}N,"InChI=1S/C4H11N/c1-4(2)3-5/h4H,3,5H2,1-2H3",KDSNLYIMUZNERS-UHFFFAOYSA-N,2-methyl-1-propanamine,4.067354188
0.073838289,1.0014702,1.476786746,9,1,56,550.0070578,0.490136791,0.795842977,1.433842803,C_{8}H_{18},"InChI=1S/C8H18/c1-7(2)5-6-8(3)4/h7-8H,5-6H2,1-4H3",UWNADWZGEHDQAB-UHFFFAOYSA-N,"2,5-dimethylhexane",2.487749312
,,1.549257445,0,0,56,664,1.273389481,0.99661669,0.642932599,C_{9}H_{10},"InChI=1S/C9H10/c1-3-9-6-4-8(2)5-7-9/h3-7H,1H2,2H3",JLBJTVDPSNHSKJ-UHFFFAOYSA-N,1-ethenyl-4-methylbenzene,3.49184076
0.103617761,2.788105828,3.055296527,1,2,56,602,0.58485938,0.80137208,1.394635507,C_{7}H_{14}O,"InChI=1S/C7H14O/c1-3-5-7(8)6-4-2/h3-6H2,1-2H3",HCFAJYNVAYBARA-UHFFFAOYSA-N,4-heptanone,3.009309718
,,3.354541901,0,0,56,804,1.170919864,0.999986111,0.757377158,C_{6}H_{3}Cl_{3}O,"InChI=1S/C6H3Cl3O/c7-3-1-4(8)6(10)5(9)2-3/h1-2,10H",LINPIYWFGCPVIE-UHFFFAOYSA-N,"2,4,6-trichlorophenol",5.515797392
,1.413166361,5.845624841,0,2,56,693.8158968,0.541237271,0.799551329,2.544764946,C_{9}H_{14}O_{6},"InChI=1S/C9H14O6/c1-6(10)13-4-9(15-8(3)12)5-14-7(2)11/h9H,4-5H2,1-3H3",URAYPUMNDPQOKB-UHFFFAOYSA-N,glyceryl triethanoate,2.03107491
,,6.113947786,0,0,56,812,0.618749625,0.857390852,2.434336342,C_{7}H_{5}N_{3}O_{6},"InChI=1S/C7H5N3O6/c1-4-6(9(13)14)2-5(8(11)12)3-7(4)10(15)16/h2-3H,1H3",SPSSULHKWOKEEL-UHFFFAOYSA-N,"2,4,6-trinitrotoluene",2.183452851
0.499363008,1.51372876,8.936492078,48,2,56,593.7,1.037073484,0.861389072,0.863358251,C_{9}H_{18},"InChI=1S/C9H18/c1-3-5-7-9-8-6-4-2/h3H,1,4-9H2,2H3",JRZJOMJEPLMPRA-UHFFFAOYSA-N,1-nonene,2.382158807
0.241457938,3.569461658,10.67067923,36,1,56,778,0.79034943,0.836637751,1.071628798,C_{10}H_{9}N,"InChI=1S/C10H9N/c1-8-6-7-9-4-2-3-5-10(9)11-8/h2-7H,1H3",SMUQFGGVLNAIOZ-UHFFFAOYSA-N,2-methylquinoline,3.919722854
,,20.49507987,0,0,56,850,0.544029415,0.696748167,2.541259959,C_{30}H_{62},"InChI=1S/C30H62/c1-3-5-7-9-11-13-15-17-19-21-23-25-27-29-30-28-26-24-22-20-18-16-14-12-10-8-6-4-2/h3-30H2,1-2H3",JXTPJDDICSTXJX-UHFFFAOYSA-N,triacontane,0.725482477
,,25.91969435,0,0,56,883.6,0.489310385,0.792728722,3.803014959,C_{36}H_{74},"InChI=1S/C36H74/c1-3-5-7-9-11-13-15-17-19-21-23-25-27-29-31-33-35-36-34-32-30-28-26-24-22-20-18-16-14-12-10-8-6-4-2/h3-36H2,1-2H3",YDLYQMBWCWFRAI-UHFFFAOYSA-N,hexatriacontane,0.563200404
,0.000591164,0.161135928,0,1,55,605,0.377412413,0.824702387,1.558066327,C_{8}H_{16},"InChI=1S/C8H16/c1-7(2)8-5-3-4-6-8/h7-8H,3-6H2,1-2H3",TVSBRLGQVHJIKT-UHFFFAOYSA-N,1-methylethylcyclopentane,3.432807707
0.400798475,,0.541607302,47,0,55,643.846611,0.514380334,0.85723519,1.537401895,^{2}H_{2}O,InChI=1S/H2O/h1H2/i/hD2,XLYOFNOQVPJJNP-ZSJDYOACSA-N,water-d2,21.67121189
,,0.700632035,0,0,55,378.563282,0.318325555,0.840022821,1.757667173,C_{3}H_{3}F_{3},"InChI=1S/C3H3F3/c1-2-3(4,5)6/h2H,1H2",FDMFUZHCIRHGRG-UHFFFAOYSA-N,"1,1,1-trifluoro-2-propene",3.618114921
0.919487182,0.289610624,1.844181832,94,1,55,482.30666,0.566325409,0.828689228,1.126092535,C_{3}H_{6}O,"InChI=1S/C3H6O/c1-3-2-4-3/h3H,2H2,1H3",GOOHAUXETOMSMM-UHFFFAOYSA-N,methyloxirane,4.91175721
,,2.248156126,0,0,55,609,2.038755832,0.999867572,0.57803121,C_{5}H_{10}O_{2},"InChI=1S/C5H10O2/c1-5(2,3)4(6)7/h1-3H3,(H,6,7)",IUGYQRQAERSCNH-UHFFFAOYSA-N,"2,2-dimethylpropanoic acid",3.207444546
,,3.066535453,0,0,55,882.535674,0.204279529,0.807742189,3.398464422,C_{18}H_{14},InChI=1S/C18H14/c1-3-8-15(9-4-1)17-12-7-13-18(14-17)16-10-5-2-6-11-16/h1-14H,YJTKZCDBKVTVBY-UHFFFAOYSA-N,m-terphenyl,2.174535674
,,3.105187141,0,0,55,755.7608446,0.840481904,0.79407604,1.694741487,C_{19}H_{40},"InChI=1S/C19H40/c1-3-5-7-9-11-13-15-17-19-18-16-14-12-10-8-6-4-2/h3-19H2,1-2H3",LQERIDTXQFOHKA-UHFFFAOYSA-N,nonadecane,1.161471752
,1.80969233,3.882031749,0,2,55,581,0.477973732,0.864462111,2.194326223,C_{5}H_{14}N_{2},"InChI=1S/C5H14N2/c1-7(2)5-3-4-6/h3-6H2,1-2H3",IUNMPGNGSSIWFP-UHFFFAOYSA-N,"N,N-dimethyl-1,3-propanediamine",3.570871397
,,4.760980462,0,0,55,604.4,2.325858163,0.502099518,0.57553361,C_{6}H_{14}O,"InChI=1S/C6H14O/c1-3-4-6(2)5-7/h6-7H,3-5H2,1-2H3",PFNHSEQQEPMLNI-UHFFFAOYSA-N,2-methyl-1-pentanol,3.449982389
,,6.459290534,0,0,55,629,0.536600994,0.855894788,2.449315681,C_{5}H_{6}O_{2},"InChI=1S/C5H6O2/c6-4-5-2-1-3-7-5/h1-3,6H,4H2",XPFVYQJUAUNWIW-UHFFFAOYSA-N,2-hydroxymethylfuran,5.523679704
,,7.795417462,0,0,55,699,1.206173625,0.672245121,0.79212596,C_{8}H_{10}O,"InChI=1S/C8H10O/c1-7(9)8-5-3-2-4-6-8/h2-7,9H,1H3",WAPNOHKVXSQRPX-UHFFFAOYSA-N,1-phenylethanol,3.771465657
,,13.08635606,0,0,55,810.25686,0.60647745,0.910451218,1.794482509,C_{10}H_{17}NO,"InChI=1S/C10H17NO/c12-10-7-4-8-11(10)9-5-2-1-3-6-9/h9H,1-8H2",PZYDAVFRVJXFHS-UHFFFAOYSA-N,N-cyclohexylpyrrolidinone,3.667178217
,,0.955997807,0,0,54,594,1.601477892,0.983345819,0.454700106,C_{7}H_{12},"InChI=1S/C7H12/c1-2-4-7-5-6(7)3-1/h6-7H,1-5H2",WPHGSKGZRAQSGP-UHFFFAOYSA-N,bicyclo[4.1.0]heptane,4.066767246
0.052983846,,1.074458064,14,0,54,604.26,0.330580568,0.832762225,1.649580011,C_{7}H_{14},InChI=1S/C7H14/c1-2-4-6-7-5-3-1/h1-7H2,DMEGYFMYUHOHGS-UHFFFAOYSA-N,cycloheptane,3.849855944
0.624180517,1.032937969,1.291019569,35,1,54,468.95132,0.557514591,0.854271591,1.050689755,C_{2}H_{4}O,InChI=1S/C2H4O/c1-2-3-1/h1-2H2,IAYPIBMASNFSPL-UHFFFAOYSA-N,oxirane,7.241286186
,,1.610971922,0,0,54,578,0.253567086,0.859637894,2.395822196,C_{3}H_{4}Cl_{2},InChI=1S/C3H4Cl2/c1-3(5)2-4/h1-2H2,FALCMQXTWHPRIH-UHFFFAOYSA-N,"2,3-dichloro-1-propene",5.948944976
,,1.855061632,0,0,54,647,1.087200741,0.887913444,1.033156006,C_{5}H_{8}O_{4},"InChI=1S/C5H8O4/c1-8-4(6)3-5(7)9-2/h3H2,1-2H3",BEPAFCGSDWSTEL-UHFFFAOYSA-N,"dimethyl 1,3-propanedioate",3.548980768
,,2.379304451,0,0,54,721.2,1.267077059,0.816063954,0.902386595,C_{4}H_{11}NO_{2},"InChI=1S/C4H11NO2/c5-1-3-7-4-2-6/h6H,1-5H2",GIAFURWZWWWBQT-UHFFFAOYSA-N,2-(2-aminoethoxy)ethanol,4.779638162
,,3.26467271,0,0,54,814.3767414,0,0.328980699,0.546230543,I_{2},InChI=1S/I2/c1-2,PNDPGZBMCMUPRI-UHFFFAOYSA-N,iodine,7.393433288
,,3.459055261,0,0,54,428.9259704,0.553418954,0.916753159,1.733665726,C_{3}H_{2}F_{6}O,"InChI=1S/C3H2F6O/c4-1(3(7,8)9)10-2(5)6/h1-2H",DPYMFVXJLLWWEU-UHFFFAOYSA-N,"1,1,1,2-tetrafluoro-2-(difluoromethoxy)ethane",3.046493455
,0.20094358,3.483416932,0,7,54,797,0.717087082,0.797324585,1.349690362,C_{15}H_{16},"InChI=1S/C15H16/c1-12(2)14-9-6-10-15(11-14)13-7-4-3-5-8-13/h3-12H,1-2H3",LIWRTHVZRZXVFX-UHFFFAOYSA-N,"3-(1-Methylethyl)-1,1'-biphenyl",2.779502743
,,3.885647033,0,0,54,675,1.346152938,0.999744893,0.712502767,C_{11}H_{16},"InChI=1S/C11H16/c1-2-3-5-8-11-9-6-4-7-10-11/h4,6-7,9-10H,2-3,5,8H2,1H3",PWATWSYOIIXYMA-UHFFFAOYSA-N,pentylbenzene,2.576469145
,,11.26970775,0,0,54,810,0.340896781,0.856339322,2.4507291,C_{4}H_{8}O_{2}S,InChI=1S/C4H8O2S/c5-7(6)3-1-2-4-7/h1-4H2,HXJUTPCZVOIRIF-UHFFFAOYSA-N,sulfolane,3.379884226
,10.73908708,12.12891857,0,1,54,653,0,0.47278637,0.585715586,C_{3}H_{7}NO_{3},"InChI=1S/C3H7NO3/c1-2-3-7-4(5)6/h2-3H2,1H3",JNTOKFNBDFMTIV-UHFFFAOYSA-N,n-propyl nitrate,3.409990529
,0.021915893,0.353184916,0,2,53,563.452054,0.300811814,0.822483338,2.065509288,C_{8}H_{18},"InChI=1S/C8H18/c1-5-6-8(4)7(2)3/h7-8H,5-6H2,1-4H3",JXPOLSKBTUYKJB-UHFFFAOYSA-N,"2,3-dimethylhexane",2.630038887
,,0.499445894,0,0,53,741,1.656712747,0.998957073,0.580997268,C_{10}H_{14}O,"InChI=1S/C10H14O/c1-7(2)9-5-4-6-10(11)8(9)3/h4-7,11H,1-3H3",NKXINWNCBKRRIC-UHFFFAOYSA-N,2-methyl-3-(1-methylethyl)phenol,3.039223703
,,1.17851994,0,0,53,460,1.059907847,0.41644848,1.073591891,C_{3}H_{2}F_{6}O,"InChI=1S/C3H2F6O/c4-2(5,6)1(10)3(7,8)9/h1,10H",BYEAHWXPCBROCE-UHFFFAOYSA-N,"1,1,1,3,3,3-hexafluoro-2-propanol",3.115463363
,,1.206997118,0,0,53,611,1.068431877,0.865815382,1.29676235,C_{4}H_{11}NO,"InChI=1S/C4H11NO/c1-4(2,5)3-6/h6H,3,5H2,1-2H3",CBTVGIZVANVGBH-UHFFFAOYSA-N,2-amino-2-methylpropan-1-ol,4.228815248
0.599871087,,1.38739436,49,0,53,452.69,0.476881644,0.859336798,1.242904527,C_{5}H_{10},"InChI=1S/C5H10/c1-4-5(2)3/h4-5H,1H2,2-3H3",YHQXBTXEYZIYOV-UHFFFAOYSA-N,3-methyl-1-butene,3.516547461
,,1.578610485,0,0,53,618.4,0.25574234,0.824918457,2.99307649,C_{8}H_{16}O_{2},"InChI=1S/C8H16O2/c1-3-4-5-6-7-10-8(2)9/h3-7H2,1-2H3",AOGQPLXWSUTHQB-UHFFFAOYSA-N,hexyl ethanoate,2.530384976
,0.035176707,2.166439734,0,1,53,742,0.56166719,0.811178006,1.395116698,C_{12}H_{16},"InChI=1S/C12H16/c1-3-7-11(8-4-1)12-9-5-2-6-10-12/h1,3-4,7-8,12H,2,5-6,9-10H2",IGARGHRYKHJQSM-UHFFFAOYSA-N,cyclohexylbenzene,2.839735012
,,2.581225667,0,0,53,790,1.285043138,0.768720554,1.152621997,C_{18}H_{38}O,"InChI=1S/C18H38O/c1-2-3-4-5-6-7-8-9-10-11-12-13-14-15-16-17-18-19/h19H,2-18H2,1H3",GLDOVTGHNKAZLK-UHFFFAOYSA-N,1-octadecanol,1.302560517
0.057832665,,2.591485915,24,0,53,652,0.992914945,0.853778851,0.733199904,C_{9}H_{16},"InChI=1S/C9H16/c1-2-5-9-7-3-6-8(9)4-1/h8-9H,1-7H2/t8-,9-/m1/s1",BNRNAKTVFSZAFA-RKDXNWHRSA-N,trans-bicyclo[4.3.0]nonane,3.267711221
,,2.634386321,0,0,53,808,1.303829049,0.993622436,0.850803863,C_{6}H_{6}N_{2}O_{2},"InChI=1S/C6H6N2O2/c7-5-3-1-2-4-6(5)8(9)10/h1-4H,7H2",DPJCXCZTLWNFOH-UHFFFAOYSA-N,2-nitroaniline,4.099811718
0.074158168,1.129849672,3.015717167,37,2,53,614.6,1.212783306,0.93745767,0.598911246,C_{3}H_{6}Cl_{2},InChI=1S/C3H6Cl2/c4-2-1-3-5/h1-3H2,YHRUOJUYPBUZOS-UHFFFAOYSA-N,"1,3-dichloropropane",4.909780161
,,3.228047792,0,0,53,716.46401,1.566858625,0.999963973,0.657641892,C_{8}H_{10}O,"InChI=1S/C8H10O/c1-2-7-3-5-8(9)6-4-7/h3-6,9H,2H2,1H3",HXDOZKJGKXYMEW-UHFFFAOYSA-N,4-ethylphenol,4.133985397
,0.882864685,3.658101562,0,4,53,588,2.842970396,0.240909867,0.644643943,C_{7}H_{16}O,"InChI=1S/C7H16O/c1-4-5-6-7(2,3)8/h8H,4-6H2,1-3H3",KRIMXCDMVRMCTC-UHFFFAOYSA-N,2-methyl-2-hexanol,2.969273172
,1.369435202,4.291251552,0,2,53,628,1.419123827,0.999956652,0.704598843,C_{8}H_{16}O_{2},"InChI=1S/C8H16O2/c1-3-4-5-6-7-8(9)10-2/h3-7H2,1-2H3",XNCNNDVCAUWAIT-UHFFFAOYSA-N,methyl heptanoate,2.591507939
,,0.059530751,0,0,52,452.74484,0.338887466,0.831700136,1.907772636,ClF_{3},InChI=1S/ClF3/c2-1(3)4,JOHWNGGYGAVMGU-UHFFFAOYSA-N,chlorine trifluoride,7.159272999
,,0.834600642,0,0,52,590,0.831984124,0.929240725,1.265433355,C_{6}BrF_{5},InChI=1S/C6BrF5/c7-1-2(8)4(10)6(12)5(11)3(1)9,XEKTVXADUPBFOA-UHFFFAOYSA-N,bromopentafluorobenzene,3.473796535
,0.126174034,0.976680213,0,1,52,569.88334,0.611508758,0.824808939,1.28179037,C_{9}H_{20},"InChI=1S/C9H20/c1-8(2)6-7-9(3,4)5/h8H,6-7H2,1-5H3",HHOSMYBYIHNXNO-UHFFFAOYSA-N,"2,2,5-trimethylhexane",2.450509172
0.208708792,0.248304999,1.074981103,4,1,52,498.208,0.183947791,0.852373106,2.511674436,C_{4}H_{9}Cl,"InChI=1S/C4H9Cl/c1-4(2,3)5/h1-3H3",NBRKLOOSMBRFMH-UHFFFAOYSA-N,2-chloro-2-methylpropane,3.911849529
,0.460464616,1.103322748,0,11,52,478.54,0.127765483,0.839763518,2.720816778,C_{4}H_{8}O,"InChI=1S/C4H8O/c1-4(2)5-3/h1H2,2-3H3",YOWQWFMSQCOSBA-UHFFFAOYSA-N,2-methoxypropene,4.176613715
,0.067732042,1.362181424,0,13,52,656,0.670769727,0.831788135,1.087225943,C_{7}H_{7}Cl,"InChI=1S/C7H7Cl/c1-6-2-4-7(8)5-3-6/h2-5H,1H3",NPDACUSDTOMAMK-UHFFFAOYSA-N,4-chlorotoluene,3.644358696
0.12710026,0.473167974,2.288338552,9,6,52,561.701704,0.536165962,0.802894752,1.386318829,C_{8}H_{18},"InChI=1S/C8H18/c1-4-6-8(3)7-5-2/h8H,4-7H2,1-3H3",CHBAWFGIXDBEBT-UHFFFAOYSA-N,4-methylheptane,2.543999423
,,2.37805338,0,0,52,683,0.95394914,0.895356235,1.538250126,C_{10}H_{18}O_{4},"InChI=1S/C10H18O4/c1-3-5-7-13-9(11)10(12)14-8-6-4-2/h3-8H2,1-2H3",JKRZOJADNVOXPM-UHFFFAOYSA-N,di-n-butyl oxalate,2.132213867
,0.672985983,2.533287522,0,3,52,540.77704,0.839803044,0.745670677,0.931537538,C_{5}H_{10}O_{2},"InChI=1S/C5H10O2/c1-4(2)5(6)7-3/h4H,1-3H3",BHIWKHZACMWKOJ-UHFFFAOYSA-N,methyl 2-methylpropanoate,3.435410135
,,2.576392445,0,0,52,724,0.869961372,0.660448918,1.356373283,C_{6}H_{15}NO_{2},"InChI=1S/C6H15NO2/c1-5(8)3-7-4-6(2)9/h5-9H,3-4H2,1-2H3",LVTYICIALWPMFW-UHFFFAOYSA-N,N-(2-hydroxypropyl)-2-hydroxy-1-propanamine,3.706542592
,,5.807623322,0,0,52,593,1.937205728,0.690298801,0.652706859,C_{6}H_{14}O,"InChI=1S/C6H14O/c1-3-6(4-2)5-7/h6-7H,3-5H2,1-2H3",TZYRSLHNPKPEFV-UHFFFAOYSA-N,2-ethyl-1-butanol,3.53960388
0.127279363,0.666887782,6.88192739,18,11,52,706.8824848,0.61563192,0.78895373,1.89947449,C_{15}H_{32},"InChI=1S/C15H32/c1-3-5-7-9-11-13-15-14-12-10-8-6-4-2/h3-15H2,1-2H3",YCOZIPAWZNQLMR-UHFFFAOYSA-N,pentadecane,1.464138659
,0.401517369,9.515206302,0,2,52,625,1.387829347,0.999811616,0.952061389,C_{6}H_{10}O_{4},"InChI=1S/C6H10O4/c1-5(7)9-3-4-10-6(2)8/h3-4H2,1-2H3",JTXMVXSTHSMVQF-UHFFFAOYSA-N,ethylene diacetate,3.054007492
,0.008781094,0.348824151,0,1,51,549.87934,0.587659043,0.826216728,1.277926233,C_{8}H_{18},"InChI=1S/C8H18/c1-5-6-7-8(2,3)4/h5-7H2,1-4H3",FLTJDUOFAQWHDF-UHFFFAOYSA-N,"2,2-dimethylhexane",2.531966756
,0.309846585,0.532556795,0,5,51,668.7,0.192700132,0.844438681,2.64067646,C_{3}H_{6}Br_{2},InChI=1S/C3H6Br2/c4-2-1-3-5/h1-3H2,VEFLKXRACNJHOV-UHFFFAOYSA-N,"1,3-dibromopropane",4.192667413
,,0.616333377,0,0,51,597.7880829,0.186764787,0.816415186,3.190777837,C_{6}H_{12}O_{3},"InChI=1S/C6H12O3/c1-5(4-8-3)9-6(2)7/h5H,4H2,1-3H3",LLHKCFNBLRBOGN-UHFFFAOYSA-N,1-methoxy-2-propyl acetate,3.067583971
0.34874085,0.73140508,1.128008887,29,1,51,469.866686,0.805523306,0.885704564,0.68628974,CH_{4}S,"InChI=1S/CH4S/c1-2/h2H,1H3",LSDPWZHWYPCBBB-UHFFFAOYSA-N,methanethiol,7.234636873
,0.114818856,1.265449337,0,2,51,718,0.607874938,0.799059857,2.270767004,C_{18}H_{26}O_{2},"InChI=1S/C18H26O2/c1-8-10-13(5)15(9-2)20-17(19)16-14(11-12(3)4)18(16,6)7/h2,10-11,14-16H,8H2,1,3-7H3/b13-10+",YUGWDVYLFSETPE-JLHYYAGUSA-N,empenthrin,1.352448806
,,1.405927594,0,0,51,714,0.213484868,0.812037893,3.280010611,C_{18}H_{30},"InChI=1S/C18H30/c1-16(2,3)13-10-14(17(4,5)6)12-15(11-13)18(7,8)9/h10-12H,1-9H3",GUFMBISUSZUUCB-UHFFFAOYSA-N,"1,3,5-tri-tert-butylbenzene",1.963910458
,,1.681395201,0,0,51,654,0.617496604,0.821615428,1.341954896,C_{10}H_{14},"InChI=1S/C10H14/c1-3-9-6-5-7-10(4-2)8-9/h5-8H,3-4H2,1-2H3",AFZZYIJIWUTJFO-UHFFFAOYSA-N,"1,3-diethylbenzene",2.744198506
,,1.996912535,0,0,51,817,0.208685933,0.002307909,0.536741575,C_{7}H_{12}N_{2},"InChI=1S/C7H12N2/c1-3-5-9-6-4-8-7(9)2/h4,6H,3,5H2,1-2H3",SIQHSJOKAUDDLN-UHFFFAOYSA-N,2-methyl-1-propyl-1H-imidazole,4.80970104
,,2.862942279,0,0,51,729.85999,1.986447784,0.999751116,0.492218707,C_{8}H_{10}O,"InChI=1S/C8H10O/c1-6-3-4-8(9)5-7(6)2/h3-5,9H,1-2H3",YCOXTKKNXUZSKD-UHFFFAOYSA-N,"3,4-dimethylphenol",4.095757583
,,4.431362697,0,0,51,668,0.213674559,0.821426032,3.079141049,C_{5}H_{10}O_{2},"InChI=1S/C5H10O2/c6-4-5-2-1-3-7-5/h5-6H,1-4H2",BSYVTEYKTMYBMK-UHFFFAOYSA-N,2-tetrahydrofurylmethanol,5.37136487
,1.041379393,4.545553461,0,2,51,647.0917549,0.890342787,0.869705523,1.048538736,C_{8}H_{10}O,"InChI=1S/C8H10O/c1-2-9-8-6-4-3-5-7-8/h3-7H,2H2,1H3",DLRJIFUOBPOJNS-UHFFFAOYSA-N,ethoxybenzene,3.433795882
,0.026260045,5.044333539,0,1,51,580,0.531726638,0.880045716,2.125221903,C_{7}H_{18}N_{2},"InChI=1S/C7H18N2/c1-8(2)6-5-7-9(3)4/h5-7H2,1-4H3",DMQSHEKGGUOYJS-UHFFFAOYSA-N,"N,N,N',N'-tetramethyl-1,3-propanediamine",3.096485146
,5.325077528,5.608125965,0,2,51,555.7821925,0.350061251,0.858892157,2.411448769,C_{6}H_{15}N,"InChI=1S/C6H15N/c1-3-5-7-6-4-2/h7H,3-6H2,1-2H3",WEHWNAOGRSTTBQ-UHFFFAOYSA-N,dipropylamine,3.678075854
0.172976756,,6.877398395,33,0,51,773,0.804684774,0.799500186,1.607157174,C_{18}H_{30},"InChI=1S/C18H30/c1-2-3-4-5-6-7-8-9-10-12-15-18-16-13-11-14-17-18/h11,13-14,16-17H,2-10,12,15H2,1H3",KWKXNDCHNDYVRT-UHFFFAOYSA-N,dodecylbenzene,1.512889144
,,8.473711123,0,0,51,454.63,0.612250596,0.922613224,1.678784397,C_{6}F_{14},"InChI=1S/C6F14/c7-1(4(12,13)14,5(15,16)17)2(8,9)3(10,11)6(18,19)20",ROVMKEZVKFJNBD-UHFFFAOYSA-N,"pentane, undecafluoro-2-(trifluoromethyl)-",1.873512588
,,10.46275742,0,0,51,626.5,0.049105543,0.780727455,4.172996505,C_{8}H_{18}O,"InChI=1S/C8H18O/c1-3-4-5-6-7-8(2)9/h8-9H,3-7H2,1-2H3/t8-/m0/s1",SJWFXCIHNDVPSH-QMMMGPOBSA-N,(S)-(+)-2-octanol,2.811361047
1.714175067,3.042967144,22.94144881,10,7,51,619.45905,1.279635008,0.999947965,0.889859214,C_{5}H_{10}O,"InChI=1S/C5H10O/c6-5-3-1-2-4-5/h5-6H,1-4H2",XCIXKGXIYUWCLL-UHFFFAOYSA-N,cyclopentanol,4.895713237
,,0.47281091,0,0,50,656.5,0.357284663,0.805562547,2.534582618,C_{11}H_{24}O,"InChI=1S/C11H24O/c1-3-4-5-6-7-8-9-10-11-12-2/h3-11H2,1-2H3",JPEWDCTZJFUITH-UHFFFAOYSA-N,2-oxadodecane,1.852058192
0.023870462,,0.576181345,2,0,50,451.6444,0.206876161,0.822710046,1.92450004,CHCl_{2}F,InChI=1S/CHCl2F/c2-1(3)4/h1H,UMNKXPULIDJLSU-UHFFFAOYSA-N,dichlorofluoromethane,5.200428105
,,0.597021204,0,0,50,892,1.271377508,0.999779536,0.776296319,C_{13}H_{9}N,InChI=1S/C13H9N/c1-2-6-11-10(5-1)9-14-13-8-4-3-7-12(11)13/h1-9H,RDOWQLZANAYVLL-UHFFFAOYSA-N,phenanthridine,2.913120517
,0.771359331,0.739420647,0,3,50,551.37964,0.445537677,0.888457986,2.028339812,C_{5}H_{10}O_{2},"InChI=1S/C5H10O2/c1-5(2)3-7-4-6/h4-5H,3H2,1-2H3",AVMSWPWPYJVYKY-UHFFFAOYSA-N,2-methylpropyl methanoate,3.985454411
,0.005039919,1.034159734,0,1,50,614,0.843821188,0.972907677,1.158332039,C_{4}H_{4}O_{2},InChI=1S/C4H4O2/c1-3-2-4(5)6-3/h1-2H2,WASQWSOJHCZDFK-UHFFFAOYSA-N,4-methylene-2-oxetanone,5.96642567
,,1.214379025,0,0,50,848,1.274051102,0.999905683,0.880765259,C_{13}H_{11}N,"InChI=1S/C13H11N/c1-14-12-8-4-2-6-10(12)11-7-3-5-9-13(11)14/h2-9H,1H3",SDFLTYHTFPTIGX-UHFFFAOYSA-N,9-methyl-9H-carbazole,2.225403352
,,2.376412636,0,0,50,687,1.38268862,0.998736827,0.579806302,C_{7}H_{7}Cl,"InChI=1S/C7H7Cl/c8-6-7-4-2-1-3-5-7/h1-5H,6H2",KCXMKQUNVWSEMD-UHFFFAOYSA-N,(chloromethyl)benzene,4.238224126
,,2.712072926,0,0,50,756,0.226474655,0.83824477,2.746719189,C_{7}H_{13}NO,"InChI=1S/C7H13NO/c1-8-6-4-2-3-5-7(8)9/h2-6H2,1H3",ZWXPDGCFMMFNRW-UHFFFAOYSA-N,1-methylazacycloheptan-2-one,3.802508017
,,2.821823139,0,0,50,643,0.266163698,0.816629914,3.186227284,C_{9}H_{18}O_{3},"InChI=1S/C9H18O3/c1-3-5-7-11-9(10)12-8-6-4-2/h3-8H2,1-2H3",QLVWOKQMDLQXNN-UHFFFAOYSA-N,dibutyl carbonate,2.012900241
0.222085414,0.330970755,3.109540976,31,11,50,560.1046586,0.430167718,0.803106625,1.279584978,C_{6}H_{5}F,InChI=1S/C6H5F/c7-6-4-2-1-3-5-6/h1-5H,PYLWMHQQBFSUBP-UHFFFAOYSA-N,fluorobenzene,4.549827965
0.174090658,0.409221881,3.191273867,68,1,50,718,0.770429556,0.784974037,1.601991933,C_{16}H_{32},"InChI=1S/C16H32/c1-3-5-7-9-11-13-15-16-14-12-10-8-6-4-2/h3H,1,4-16H2,2H3",GQEZCXVZFLOKMC-UHFFFAOYSA-N,1-hexadecene,1.37585088
0.053489859,,3.429309012,53,0,50,675,1.220671833,0.926444195,0.566378873,C_{6}H_{11}Br,"InChI=1S/C6H11Br/c7-6-4-2-1-3-5-6/h6H,1-5H2",AQNQQHJNRPDOQV-UHFFFAOYSA-N,bromocyclohexane,3.833646855
,,3.75057787,0,0,50,639.1,0.8071822,0.999983025,0.925354225,Cl_{4}Ti,InChI=1S/4ClH.Ti/h4*1H;/q;;;;+4/p-4,XJDNKRIXUMDJCW-UHFFFAOYSA-J,titanium(IV) chloride,4.29369375
,0.108534577,4.135924918,0,1,50,783,1.359479841,0.999996067,0.717689626,C_{13}H_{12},"InChI=1S/C13H12/c1-11-6-5-9-13(10-11)12-7-3-2-4-8-12/h2-10H,1H3",NPDIDUXTRAITDE-UHFFFAOYSA-N,3-methylbiphenyl,3.087177771