AAD_Csat,AAD_hfg,AAD_psat,N_Csat,N_hfg,N_psat,Tc_K,c0,c1,c2,formula,inchi,inchikey,name,pc_MPa
,,1.123183245,0,0,12,607,0.625865514,0.884289776,2.077044547,C_{8}Cl_{4}F_{14}O,"InChI=1S/C8Cl4F14O/c9-1(13,7(22,23)24)8(25,26)27-5(10,11)3(16,17)2(14,15)4(18,19)6(12,20)21",YMOIDLRGYJPYCQ-UHFFFAOYSA-N,"1,1,5-trichloro-1-(2-chloro-1,1,2,3,3,3-hexafluoropropoxy)-2,2,3,3,4,4,5,5-octafluoropentane",1.456968587
,,1.141321608,0,0,12,437.81368,1.546914444,0.953351137,0.437559269,C_{3}H_{8}O,"InChI=1S/C3H8O/c1-3-4-2/h3H2,1-2H3",XOBKSJJDNFUZPF-UHFFFAOYSA-N,ethyl methyl ether,4.394097285
,,1.163719836,0,0,12,700,1.355517361,0.983478965,0.567504816,C_{8}H_{7}Cl,"InChI=1S/C8H7Cl/c1-2-7-3-5-8(9)6-4-7/h2-6H,1H2",KTZVZZJJVJQZHV-UHFFFAOYSA-N,1-chloro-4-vinylbenzene,3.615160381
0.01986141,,1.234066493,13,0,12,778,0.510286709,0.825679569,1.673932962,C_{12}H_{12},"InChI=1S/C12H12/c1-9-7-11-5-3-4-6-12(11)8-10(9)2/h3-8H,1-2H3",WWGUMAYGTYQSGA-UHFFFAOYSA-N,"2,3-dimethylnaphthalene",2.994124527
,,1.234571125,0,0,12,680,0.259491139,0.842538379,2.630710657,C_{9}H_{14}O,"InChI=1S/C9H14O/c1-6-4-5-7(2)9(10)8(6)3/h5-6,8H,4H2,1-3H3",QAQCUBLNHBKTRM-UHFFFAOYSA-N,"2,5,6-trimethyl-2-cyclohexen-1-one",2.924413708
,,1.288297051,0,0,12,902,1.014815233,0.41729347,0.611046859,C_{9}H_{7}FN_{2},InChI=1S/C9H7FN2/c10-8-1-3-9(4-2-8)12-6-5-11-7-12/h1-7H,KKKSMWMXKUAZHK-UHFFFAOYSA-N,4-fluoro-phenyl-1H-imidazole,4.558449003
,,1.35934871,0,0,12,603,0.607685891,0.914546657,1.754708005,C_{7}H_{14}O,"InChI=1S/C7H14O/c1-3-4-7(2)5-6-8/h6-7H,3-5H2,1-2H3",ZSJUABCTGCNBPF-UHFFFAOYSA-N,(.+-.)-3-methylhexanal,3.52726079
,,1.375303361,0,0,12,805,1.565985677,0.999925308,0.778294793,C_{19}H_{24},"InChI=1S/C19H24/c1-2-3-4-11-16-19(17-12-7-5-8-13-17)18-14-9-6-10-15-18/h5-10,12-15,19H,2-4,11,16H2,1H3",MZLKNWMNBXHXMA-UHFFFAOYSA-N,"1,1-diphenylheptane",1.659345701
,0.041749211,1.378926727,0,1,12,431.2046535,1.362743292,0.429833392,0.71145986,C_{4}H_{5}F_{5}O,"InChI=1S/C4H5F5O/c1-2-10-4(8,9)3(5,6)7/h2H2,1H3",CRJVPUWOURIOCW-UHFFFAOYSA-N,ethyl pentafluoroethyl ether,2.529982852
,,1.387247417,0,0,12,541.2,0.659700908,0.825074456,1.034364758,C_{6}H_{8},"InChI=1S/C6H8/c1-3-5-6-4-2/h3-6H,1-2H2/b6-5-",AFVDZBIIBXWASR-WAYWQWQTSA-N,"(Z)-1,3,5-hexatriene",3.805684141
,,1.407382332,0,0,12,391.7,1.580127761,0.8234365,0.560905976,C_{4}F_{10}O,"InChI=1S/C4F10O/c5-1(6,2(7,8)9)3(10,11)15-4(12,13)14",CQSSHKTURFXNGF-UHFFFAOYSA-N,"1,1,1,2,2,3,3-heptafluoro-3-(trifluoromethoxy)propane",1.877378401
,,1.465442614,0,0,12,680,0.751132369,0.913353615,1.695778607,C_{12}H_{18}O,"InChI=1S/C12H18O/c1-4-10(2)13-11(3)12-8-6-5-7-9-12/h5-11H,4H2,1-3H3/t10-,11+/m0/s1",QOQNKWLTXVLCIQ-WDEREUQCSA-N,R*S*-(1-sec-butoxyethyl)benzene,2.282405473
,,1.478604495,0,0,12,730,1.499853499,0.895826721,0.58959636,C_{13}H_{20}O,"InChI=1S/C13H20O/c1-4-5-11-14-13(2,3)12-9-7-6-8-10-12/h6-10H,4-5,11H2,1-3H3",GATSVPFYPIBDAR-UHFFFAOYSA-N,(1-butoxy-1-methylethyl)benzene,2.227349619
,,1.502779661,0,0,12,680,0.711888259,0.90539243,1.812385223,C_{12}H_{18}O,"InChI=1S/C12H18O/c1-4-10(2)13-11(3)12-8-6-5-7-9-12/h5-11H,4H2,1-3H3/t10-,11-/m0/s1",QOQNKWLTXVLCIQ-QWRGUYRKSA-N,S*S*-(1-sec-butoxyethyl)benzene,2.282732218
,0.002689977,1.528101134,0,1,12,598.5,1.174997912,0.99840454,0.706178107,C_{5}H_{9}N,"InChI=1S/C5H9N/c1-5(2)3-4-6/h5H,3H2,1-2H3",QHDRKFYEGYYIIK-UHFFFAOYSA-N,3-methylbutanenitrile,3.403185016
,,1.530377437,0,0,12,589,1.307652607,0.999745186,0.523669168,C_{3}H_{5}Cl_{3},"InChI=1S/C3H5Cl3/c1-2-3(4,5)6/h2H2,1H3",AVGQTJUPLKNPQP-UHFFFAOYSA-N,"1,1,1-trichloropropane",3.874625926
,,1.606529035,0,0,12,641,0.336377521,0.825415965,2.995639297,C_{8}H_{14}O_{4},"InChI=1S/C8H14O4/c1-4-11-7(9)6(3)8(10)12-5-2/h6H,4-5H2,1-3H3",UPQZOUHVTJNGFK-UHFFFAOYSA-N,diethyl methylpropanedioate,2.525749688
,,1.625074609,0,0,12,831,1.840870171,0.976876401,1.065697431,C_{32}H_{66},"InChI=1S/C32H66/c1-4-7-10-13-16-19-22-25-28-31-32(29-26-23-20-17-14-11-8-5-2)30-27-24-21-18-15-12-9-6-3/h32H,4-31H2,1-3H3",ZTLKOYAJKRWSKL-UHFFFAOYSA-N,11-decyldocosane,0.583327362
,,1.654124866,0,0,12,668,0.822948854,0.970835479,1.172866014,C_{11}H_{16},"InChI=1S/C11H16/c1-3-7-10(2)11-8-5-4-6-9-11/h4-6,8-10H,3,7H2,1-2H3",LTHAIAJHDPJXLG-UHFFFAOYSA-N,(1-methylbutyl)benzene,2.677030186
,,1.73054336,0,0,12,848,1.738325791,0.940827072,1.01800867,C_{31}H_{64},"InChI=1S/C31H64/c1-4-7-10-13-16-19-22-25-28-31(29-26-23-20-17-14-11-8-5-2)30-27-24-21-18-15-12-9-6-3/h31H,4-30H2,1-3H3",BCWYKEQUGMQGAP-UHFFFAOYSA-N,11-decylhenicosane,0.609782071
,,1.756651561,0,0,12,719,0.656328767,0.918623657,1.716073949,C_{9}H_{12}O,"InChI=1S/C9H12O/c1-6-4-5-7(2)9(10)8(6)3/h4-5,10H,1-3H3",QQOMQLYQAXGHSU-UHFFFAOYSA-N,"2,3,6-trimethylphenol",3.796182116
,,1.787895051,0,0,12,735.6,1.050756601,0.93529118,1.506365736,C_{18}H_{38},"InChI=1S/C18H38/c1-4-5-6-7-8-9-10-11-12-13-14-15-16-17-18(2)3/h18H,4-17H2,1-3H3",RJWUMFHQJJBBOD-UHFFFAOYSA-N,2-methylheptadecane,1.242989625
,,1.809029037,0,0,12,790,0.383956376,0.818945864,3.133706852,C_{19}H_{32},"InChI=1S/C19H32/c1-2-3-4-5-6-7-8-9-10-11-13-16-19-17-14-12-15-18-19/h12,14-15,17-18H,2-11,13,16H2,1H3",MCVUKOYZUCWLQQ-UHFFFAOYSA-N,tridecylbenzene,1.540416499
,,1.840513903,0,0,12,673,0.526288884,0.822857222,1.548419219,C_{9}H_{12}O,"InChI=1S/C9H12O/c1-2-8-10-9-6-4-3-5-7-9/h3-7H,2,8H2,1H3",DSNYFFJTZPIKFZ-UHFFFAOYSA-N,propoxybenzene,3.171018331
,,1.855502454,0,0,12,670,0.586490348,0.923324169,1.67268041,C_{8}H_{9}Cl,"InChI=1S/C8H9Cl/c1-2-7-4-3-5-8(9)6-7/h3-6H,2H2,1H3",LOXUEGMPESDGBQ-UHFFFAOYSA-N,1-chloro-3-ethylbenzene,3.739405865
,,1.949932732,0,0,12,670,1.166481501,0.872133897,1.035957227,C_{2}HCl_{3}O_{2},"InChI=1S/C2HCl3O2/c3-2(4,5)1(6)7/h(H,6,7)",YNJBWRMUSHSURL-UHFFFAOYSA-N,trichlorethanoic acid,4.080280512
,,1.969995257,0,0,12,377.26,0.521279733,0.912980965,1.768957742,C_{3}HF_{7}O,"InChI=1S/C3HF7O/c4-1(2(5,6)7)11-3(8,9)10/h1H",UDKWMTKIRQSDHF-UHFFFAOYSA-N,"1,1,1,2-tetrafluoro-2-(trifluoromethoxy)ethane",2.62002101
,,2.030805274,0,0,12,684,0.797999925,0.922943779,1.676030588,C_{14}H_{30}O,"InChI=1S/C14H30O/c1-7-8-9-10-11-15-14(5,6)12-13(2,3)4/h7-12H2,1-6H3",IQAABZUKUXMNOI-UHFFFAOYSA-N,"pentane, 2-hexoxy-2,4,4-trimethyl-",1.588722477
,,2.039201951,0,0,12,742,0.512710868,0.812255405,2.515497203,C_{12}H_{22}O_{4},"InChI=1S/C12H22O4/c1-15-11(13)9-7-5-3-4-6-8-10-12(14)16-2/h3-10H2,1-2H3",ALOUNLDAKADEEB-UHFFFAOYSA-N,dimethyl sebacate,2.076058736
,,2.048097578,0,0,12,981,0.3099625,0.842654295,2.671052427,C_{18}H_{12},InChI=1S/C18H12/c1-2-7-15-12-18-16(11-14(15)6-1)10-9-13-5-3-4-8-17(13)18/h1-12H,DXBHBZVCASKNBY-UHFFFAOYSA-N,benz[a]anthracene,2.142847553
,,2.136464772,0,0,12,790,1.830805876,0.980102977,0.90869928,C_{25}H_{52},"InChI=1S/C25H52/c1-4-7-10-13-16-19-22-25(23-20-17-14-11-8-5-2)24-21-18-15-12-9-6-3/h25H,4-24H2,1-3H3",ZLIOPNROBPMBFI-UHFFFAOYSA-N,9-octylheptadecane,0.818405866
,,2.214286746,0,0,12,787,1.241851289,0.877831885,1.490176134,C_{24}H_{50},"InChI=1S/C24H50/c1-4-5-6-7-8-9-10-11-12-13-14-15-16-17-18-19-20-21-22-23-24(2)3/h24H,4-23H2,1-3H3",JNHSEDRFFJZMLH-UHFFFAOYSA-N,2-methyltricosane,0.878160106
,,2.513892516,0,0,12,766,0.730595599,0.889115718,2.020783615,C_{20}H_{40}O,"InChI=1S/C20H40O/c1-7-20(6,21)16-10-15-19(5)14-9-13-18(4)12-8-11-17(2)3/h7,17-19,21H,1,8-16H2,2-6H3",KEVYVLWNCKMXJX-UHFFFAOYSA-N,"3,7,11,15-tetramethyl-1-hexadecen-3-ol",1.142463094
0.223278269,0.524870902,2.589085132,53,1,12,492,0.7709651,0.861225467,0.757404371,C_{2}H_{2}Cl_{2},InChI=1S/C2H2Cl2/c1-2(3)4/h1H2,LGXVIGDEPROXKC-UHFFFAOYSA-N,"1,1-dichloroethene",5.231663118
,,2.70297494,0,0,12,667,1.190294361,0.999799178,0.767209431,C_{11}H_{16},"InChI=1S/C11H16/c1-4-10-6-5-7-11(8-10)9(2)3/h5-9H,4H2,1-3H3",GSLSBTNLESMZTN-UHFFFAOYSA-N,1-ethyl-3-(1-methylethyl)benzene,2.499330041
,,2.821063507,0,0,12,609,1.294027916,0.999933996,0.799664375,C_{10}H_{20}O_{2},"InChI=1S/C10H20O2/c1-9(2,3)7-12-8(11)10(4,5)6/h7H2,1-6H3",KEVRVUAKQLMNFS-UHFFFAOYSA-N,"2,2-dimethylpropyl 2,2-dimethylpropanoic acid",2.260000886
,,2.886693621,0,0,12,665,0.61893145,0.91277888,1.771772734,C_{2}H_{5}ClO_{2}S,"InChI=1S/C2H5ClO2S/c1-2-6(3,4)5/h2H2,1H3",FRYHCSODNHYDPU-UHFFFAOYSA-N,1-ethanesulfonyl chloride,5.180572692
,,2.907040472,0,0,12,748,0.869589712,0.913188874,1.767792954,C_{14}H_{22}O,"InChI=1S/C14H22O/c1-13(2,3)10-14(4,5)11-8-6-7-9-12(11)15/h6-9,15H,10H2,1-5H3",XSXWOBXNYNULJG-UHFFFAOYSA-N,"o-(1,1,3,3-Tetramethylbutyl)phenol",2.413959939
,0.037157522,3.122394938,0,1,12,630,0.87319904,0.999974824,0.896344056,C_{6}H_{8}S,"InChI=1S/C6H8S/c1-2-6-4-3-5-7-6/h3-5H,2H2,1H3",JCCCMAAJYSNBPR-UHFFFAOYSA-N,"thiophene, 2-ethyl-",4.269686149
,,3.50371879,0,0,12,685,0.868322524,0.957034145,1.280485357,C_{12}H_{18},"InChI=1S/C12H18/c1-4-10-7-8-11(5-2)12(6-3)9-10/h7-9H,4-6H2,1-3H3",WNLWIOJSURYFIB-UHFFFAOYSA-N,"1,2,4-triethylbenzene",2.331335732
,,3.734004577,0,0,12,636,0.740801152,0.775519187,1.118647402,C_{11}H_{22},"InChI=1S/C11H22/c1-5-8-10-11(4,7-3)9-6-2/h7H,3,5-6,8-10H2,1-2,4H3",OPQXVRFRVFLJEX-UHFFFAOYSA-N,3-methyl-3-propyl-1-heptene,2.233980575
,,3.784567626,0,0,12,582,1.039097882,0.999895824,0.712457155,C_{4}H_{8}Cl_{2},"InChI=1S/C4H8Cl2/c1-3(2)4(5)6/h3-4H,1-2H3",JVHKSSIDGAUKGK-UHFFFAOYSA-N,"1,1-dichloro-2-methylpropane",3.673184958
,,3.876560028,0,0,12,678,0.752219996,0.902835535,1.870985072,C_{14}H_{30},"InChI=1S/C14H30/c1-4-6-8-10-12-14(3)13-11-9-7-5-2/h14H,4-13H2,1-3H3",BHDKLTKHPZWYCV-UHFFFAOYSA-N,7-methyltridecane,1.604219964
,,3.916070712,0,0,12,710.8,0.550133416,0.835326168,2.418613903,C_{13}H_{29}N,"InChI=1S/C13H29N/c1-2-3-4-5-6-7-8-9-10-11-12-13-14/h2-14H2,1H3",ABVVEAHYODGCLZ-UHFFFAOYSA-N,1-aminotridecane,1.759085138
,,3.945387614,0,0,12,672,1.182910181,0.998571174,0.792615823,C_{11}H_{14},"InChI=1S/C11H14/c1-9(2)10(3)11-7-5-4-6-8-11/h4-9H,3H2,1-2H3",POZGETMIPGBFGQ-UHFFFAOYSA-N,3-methyl-2-phenyl-1-butene,2.805864455
,,4.007295089,0,0,12,616,0.464022729,0.922833881,1.674041534,C_{8}H_{14},"InChI=1S/C8H14/c1-7-5-3-4-6-8(7)2/h3-6H2,1-2H3",TXNWMICHNKMOBR-UHFFFAOYSA-N,"1,2-dimethylcyclohexene",3.314233408
,5.18755643,4.400787497,0,2,12,864,1.117406641,0.984472858,0.684974597,C_{7}H_{6}N_{2},InChI=1S/C7H6N2/c1-2-5-9-6-4-8-7(9)3-1/h1-6H,UTCSSFWDNNEEBH-UHFFFAOYSA-N,"imidazo[1,2-a]pyridine",6.501741473
,,4.486844147,0,0,12,680,0.568399405,0.923766564,1.668045412,C_{7}H_{11}N,"InChI=1S/C7H11N/c8-6-7-4-2-1-3-5-7/h7H,1-5H2",VBWIZSYFQSOUFQ-UHFFFAOYSA-N,cyanocyclohexane,3.529006026
,,4.779429756,0,0,12,808,1.036067916,0.790394077,1.222261375,C_{15}H_{14}O_{2},"InChI=1S/C15H14O2/c16-15(11-13-7-3-1-4-8-13)17-12-14-9-5-2-6-10-14/h1-10H,11-12H2",MIYFJEKZLFWKLZ-UHFFFAOYSA-N,benzyl phenylacetate,2.382462311
,,5.002915143,0,0,12,693,0.917080869,0.928246981,1.598380693,C_{13}H_{20}O,"InChI=1S/C13H20O/c1-11(2)7-5-8-12(3)9-6-10-13(4)14/h6-7H,5,8,10H2,1-4H3",KLTSFSBBACTSHL-UHFFFAOYSA-N,"4,5,9-undecatrien-2-one, 6,10-dimethyl-",2.113637569
,,5.177610016,0,0,12,803,0.866552381,0.860940951,2.382853809,C_{26}H_{54},"InChI=1S/C26H54/c1-4-7-8-9-10-11-12-13-14-15-16-17-18-19-20-21-22-23-24-25-26(5-2)6-3/h26H,4-25H2,1-3H3",HCYGJXYCUXDCHD-UHFFFAOYSA-N,3-ethyltetracosane,0.851083327
0.34125171,,6.037982283,35,0,12,612,1.427529182,0.999916383,0.470478042,C_{7}H_{8},"InChI=1S/C7H8/c1-2-4-6-7-5-3-1/h1-6H,7H2",CHVJITGCYZJHLR-UHFFFAOYSA-N,"1,3,5-cycloheptatriene",4.778212839
,,6.223966686,0,0,12,676,1.516377951,0.999910076,0.715136189,C_{8}H_{8}O,"InChI=1S/C8H8O/c9-7-6-8-4-2-1-3-5-8/h1-5,7H,6H2",DTUQWGWMVIHBKE-UHFFFAOYSA-N,.alpha.-tolualdehyde,4.000702523
,,6.40355879,0,0,12,559.911,0.535619686,0.936424808,1.491782002,C_{2}H_{5}Cl_{3}Si,"InChI=1S/C2H5Cl3Si/c1-2-6(3,4)5/h2H2,1H3",ZOYFEXPFPVDYIS-UHFFFAOYSA-N,ethyl silicon trichloride,3.331507324
,,8.070396842,0,0,12,618,1.926298749,0.999913165,0.581060382,C_{8}H_{18}O,"InChI=1S/C8H18O/c1-7(2)5-8(3,4)6-9/h7,9H,5-6H2,1-4H3",CWPPDTVYIJETDF-UHFFFAOYSA-N,"2,2,4-trimethyl-1-pentanol",2.907796808
,,8.099815002,0,0,12,848,0.728447181,0.909370078,1.805193905,C_{5}H_{4}N_{4},InChI=1S/C5H4N4/c1-2-6-5-7-4-8-9(5)3-1/h1-4H,SRNKZYRMFBGSGE-UHFFFAOYSA-N,"1,2,4-trizolo[1,5-a]pyrimidine",7.768472904
,,8.687257876,0,0,12,699,0.532095408,0.846613186,1.370742508,C_{8}H_{7}Cl,"InChI=1S/C8H7Cl/c1-2-7-4-3-5-8(9)6-7/h2-6H,1H2",BOVQCIDBZXNFEJ-UHFFFAOYSA-N,1-chloro-3-ethenylbenzene,3.727463811
,,8.822023015,0,0,12,603.3,1.995423663,0.692486752,0.476728739,C_{7}H_{14}O,"InChI=1S/C7H14O/c1-4-6(2)5-7(3)8/h6H,4-5H2,1-3H3",XUPXMIAWKPTZLZ-UHFFFAOYSA-N,4-methyl-2-hexanone,2.994804219
,,9.64358901,0,0,12,678.8,2.667460109,0.809911558,0.479753514,C_{5}H_{7}NO_{2},"InChI=1S/C5H7NO2/c1-2-8-5(7)3-4-6/h2-3H2,1H3",ZIUSEGSNTOUIPT-UHFFFAOYSA-N,ethyl cyanoacetate,3.388080192
,,9.684731908,0,0,12,605,0.728949982,0.833711011,2.832098739,C_{11}H_{4}F_{20}O,"InChI=1S/C11H4F20O/c12-2(13)4(16,17)6(20,21)8(24,25)10(28,29)11(30,31)9(26,27)7(22,23)5(18,19)3(14,15)1-32/h2,32H,1H2",GJYLSFCFHFUODO-UHFFFAOYSA-N,"1H,1H,11H-eicosafluoro-1-undecanol",1.481650343
,,9.741537204,0,0,12,798,1.51293E-09,0.436804035,1.857400704,C_{12}H_{26}O_{2},"InChI=1S/C12H26O2/c13-11-9-7-5-3-1-2-4-6-8-10-12-14/h13-14H,1-12H2",GHLKSLMMWAKNBM-UHFFFAOYSA-N,"1,12-dihydroxydodecane",1.93
,,9.902869033,0,0,12,784,2.979548718,0.482700477,0.516461621,C_{15}H_{29}N,"InChI=1S/C15H29N/c1-2-3-4-5-6-7-8-9-10-11-12-13-14-15-16/h2-14H2,1H3",KRKQHNVYOWTEQO-UHFFFAOYSA-N,1-tetradecyl cyanide,1.685408038
,,10.01192726,0,0,12,812,1.232000136,0.89994928,1.710912354,C_{30}H_{62},"InChI=1S/C30H62/c1-4-7-10-13-16-17-18-19-20-23-26-29-30(27-24-21-14-11-8-5-2)28-25-22-15-12-9-6-3/h30H,4-29H2,1-3H3",RZCWYGUJADCQPF-UHFFFAOYSA-N,9-octyldocosane,0.599346673
,,10.39977841,0,0,12,723,0.32214486,0.825495201,2.992217132,C_{10}H_{18}O_{4},"InChI=1S/C10H18O4/c1-13-9(11)7-5-3-4-6-8-10(12)14-2/h3-8H2,1-2H3",LNLCRJXCNQABMV-UHFFFAOYSA-N,"1,8-octanedioic acid, dimethyl ester",2.298335074
,,12.65775092,0,0,12,779,2.151290189,0.372095824,0.913933379,C_{20}H_{38}O_{2},"InChI=1S/C20H38O2/c1-3-5-6-7-8-9-10-11-12-13-14-15-16-17-18-19-20(21)22-4-2/h11-12H,3-10,13-19H2,1-2H3/b12-11-",LVGKNOAMLMIIKO-QXMHVHEDSA-N,ethyl (Z)-9-octadeceneoate,1.039627883
,,12.710445,0,0,12,652,0,0.502707911,1.173899622,C_{6}H_{11}NO,"InChI=1S/C6H11NO/c1-2-3-4-5-7-6-8/h2-5H2,1H3",VRVUKQWNRPNACD-UHFFFAOYSA-N,pentyl isocyanate,3.322211752
,,12.88774211,0,0,12,651.8,0.396145355,0.931799118,1.551063623,C_{4}H_{8}Br_{2},"InChI=1S/C4H8Br2/c1-4(2,6)3-5/h3H2,1-2H3",SDTXSEXYPROZSZ-UHFFFAOYSA-N,"1,2-dibromo-2-methylpropane",3.660205449
,2.897593974,13.33647219,0,1,12,618.866432,0.309065089,0.833051887,2.842436926,C_{9}H_{18}O_{2},"InChI=1S/C9H18O2/c1-4-5-9(10)11-7-6-8(2)3/h8H,4-7H2,1-3H3",PQLMXFQTAMDXIZ-UHFFFAOYSA-N,3-methylbutyl butanoate,2.265264176
,,13.43217465,0,0,12,790,0.697125732,0.897417555,1.928466986,C_{9}H_{12}O_{2},"InChI=1S/C9H12O2/c1-5-4-8(10)6(2)7(3)9(5)11/h4,10-11H,1-3H3",AUFZRCJENRSRLY-UHFFFAOYSA-N,trimethylhydroquinone,3.440998719
,,15.76386755,0,0,12,640.9,0.000290235,0.166747201,0.95650819,C_{10}H_{18},"InChI=1S/C10H18/c1-3-5-7-9-10-8-6-4-2/h3-8H2,1-2H3",JWBQJUFCNOLNNC-UHFFFAOYSA-N,5-decyne,2.454409219
,,19.05980862,0,0,12,640.1,2.401526513,0.701313056,0.472947576,C_{12}H_{26},"InChI=1S/C12H26/c1-5-6-7-8-9-12(4)10-11(2)3/h11-12H,5-10H2,1-4H3",OJAFXEXESSNPMH-UHFFFAOYSA-N,"2,4-dimethyldecane",1.963352377
,,19.38230844,0,0,12,722,1.511017316,0.997795123,0.653476679,C_{9}H_{13}N,"InChI=1S/C9H13N/c1-7(2)8-3-5-9(10)6-4-8/h3-7H,10H2,1-2H3",LRTFPLFDLJYEKT-UHFFFAOYSA-N,4-(1-methylethyl)benzenamine,3.213910337
,,21.9693794,0,0,12,846,0,0.604901052,3.194383482,C_{25}H_{50}O_{2},"InChI=1S/C25H50O2/c1-3-4-5-6-7-8-9-10-11-12-13-14-15-16-17-18-19-20-21-22-23-24-25(26)27-2/h3-24H2,1-2H3",XUDJZDNUVZHSKZ-UHFFFAOYSA-N,methyl tetracosanoate,0.827052451
,,32.81581668,0,0,12,685,0.378928287,0.002649019,1.160434941,C_{6}H_{14}O_{2},"InChI=1S/C6H14O2/c1-5(7)3-4-6(2)8/h5-8H,3-4H2,1-2H3",OHMBHFSEKCCCBW-UHFFFAOYSA-N,"2,5-hexanediol",3.593805459
,,41.26102413,0,0,12,594,0.6255072,0.922866589,1.676815502,C_{9}H_{22}N_{2},"InChI=1S/C9H22N2/c1-5-10(6-2)9-11(7-3)8-4/h5-9H2,1-4H3",UNEXJVCWJSHFNN-UHFFFAOYSA-N,"N,N'-methylenebisdiethylamine",2.85558641
,7.282560597,50.83937763,0,2,12,613,0.661977022,0.92288804,1.67630421,C_{8}H_{14}O_{2},"InChI=1S/C8H14O2/c1-4-5-10-8(9)6-7(2)3/h6H,4-5H2,1-3H3",JLAVFLRQAWOKRL-UHFFFAOYSA-N,propyl 3-methyl-2-butenoate,2.871667448
,,105.8238858,0,0,12,800,1.467736617,0.968218569,1.101074683,C_{18}H_{24},"InChI=1S/C18H24/c1-2-3-4-5-6-7-10-16-13-14-17-11-8-9-12-18(17)15-16/h8-9,11-15H,2-7,10H2,1H3",GRHRSOQTWNKWMH-UHFFFAOYSA-N,2-octylnaphthalene,1.75526462
0.660318075,20.34263231,320.9984541,22,4,12,606,0.161074313,0.850310489,2.543954681,C_{3}H_{4}O_{2},"InChI=1S/C3H4O2/c1-2-3(4)5/h2H,1H2,(H,4,5)",NIXOWILDQLNWCW-UHFFFAOYSA-N,propenoic acid,5.437812849
,,0.023395738,0,0,11,707,0.266954308,0.811958531,3.295558812,C_{11}H_{22}Cl_{2},"InChI=1S/C11H22Cl2/c1-2-3-4-5-6-7-8-9-10-11(12)13/h11H,2-10H2,1H3",RFXWQJUJSLODOT-UHFFFAOYSA-N,"1,1-dichloroundecane",1.505477064
,,0.030327517,0,0,11,739,0.22805466,0.829322161,2.916655814,C_{8}H_{16}Br_{2},"InChI=1S/C8H16Br2/c1-2-3-4-5-6-8(10)7-9/h8H,2-7H2,1H3",BJJLJKYBNCPTQS-UHFFFAOYSA-N,"octane, 1,2-dibromo-",2.580086885
,,0.039705835,0,0,11,776,0.69593491,0.905064369,1.789150335,C_{8}H_{7}IO_{2},"InChI=1S/C8H7IO2/c1-11-8(10)6-2-4-7(9)5-3-6/h2-5H,1H3",DYUWQWMXZHDZOR-UHFFFAOYSA-N,methyl p-iodobenzoate,4.024840056
,,0.047890163,0,0,11,572,0.270345729,0.819762146,2.033505396,C_{3}H_{9}NO,"InChI=1S/C3H9NO/c1-5-3-2-4/h2-4H2,1H3",ASUDFOJKTJLAIK-UHFFFAOYSA-N,2-methoxyethylamine,5.778056466
,,0.096703875,0,0,11,883,1.280004671,0.692151742,0.482382123,C_{4}H_{4}Cl_{2}N_{2},"InChI=1S/C4H4Cl2N2/c1-8-2-7-3(5)4(8)6/h2H,1H3",VVYQLPWYFQBZOL-UHFFFAOYSA-N,"4,5-dichloro-1-methyl-1H-imidazole",6.716253871
,,0.103547149,0,0,11,706,0.292923521,0.808489564,3.380921951,C_{16}H_{35}N,"InChI=1S/C16H35N/c1-5-7-9-10-12-14-16(15-17(3)4)13-11-8-6-2/h16H,5-15H2,1-4H3",OCKPWMNLYXGKSL-UHFFFAOYSA-N,"N,N-dimethyl(2-pentylnonyl)amine",1.323248274
,,0.133733706,0,0,11,707,1.557441839,0.555816164,0.441792737,CBrN_{3}O_{6},"InChI=1S/CBrN3O6/c2-1(3(6)7,4(8)9)5(10)11",KWSSHZBBUQSMKF-UHFFFAOYSA-N,bromotrinitromethane,4.792240958
,,0.159471364,0,0,11,906,1.640025179,0.919283761,0.651584291,C_{21}H_{26},"InChI=1S/C21H26/c1-20(2,3)16-7-9-18-14(12-16)11-15-13-17(21(4,5)6)8-10-19(15)18/h7-10,12-13H,11H2,1-6H3",DFZYPLLGAQIQTD-UHFFFAOYSA-N,"2,7-di-tert-butylfluorene",2.116685091
,,0.164650912,0,0,11,569.8,0.809403389,0.925699661,1.185332277,C_{8}H_{16},"InChI=1S/C8H16/c1-3-5-7-8-6-4-2/h3,5H,4,6-8H2,1-2H3/b5-3+",ILPBINAXDRFYPL-HWKANZROSA-N,(E)-2-octene,2.6861458
,,0.1728492,0,0,11,705,1.139875982,0.963744851,0.932312079,C_{9}H_{18}Cl_{2},"InChI=1S/C9H18Cl2/c1-2-3-4-5-6-7-9(11)8-10/h9H,2-8H2,1H3",SAWALGNBNOPQEB-UHFFFAOYSA-N,"1,2-dichlorononane",2.236678986
,,0.228970759,0,0,11,652,0.193202813,0.826602198,2.971373633,C_{10}H_{14}O,"InChI=1S/C10H14O/c1-10(2,3)11-9-7-5-4-6-8-9/h4-8H,1-3H3",PNKZBZPLRKCVLI-UHFFFAOYSA-N,"1,1-dimethylethyl phenyl ether",3.161691469
,,0.301620558,0,0,11,604,0.465003108,0.81614512,1.614739172,C_{7}H_{14}O,"InChI=1S/C7H14O/c1-6(2)7(3)4-5-8/h5-7H,4H2,1-3H3",SZBNDYYJXRXQHA-UHFFFAOYSA-N,"3,4-dimethylpentanal",2.815515925
,,0.304469615,0,0,11,720,1.062004018,0.929550115,0.999833727,C_{8}H_{7}ClO_{2},"InChI=1S/C8H7ClO2/c1-11-8(10)6-2-4-7(9)5-3-6/h2-5H,1H3",LXNFVVDCCWUUKC-UHFFFAOYSA-N,methyl 4-chlorobenzoate,3.570676542
,,0.321802743,0,0,11,410.6315,0.814691514,0.856182051,1.006794693,C_{3}ClF_{5}O,"InChI=1S/C3ClF5O/c4-2(5,6)1(10)3(7,8)9",OJUUDWYPNQALHZ-UHFFFAOYSA-N,"1-chloro-1,1,3,3,3-pentafluoro-2-propanone",2.88799081
,,0.431455556,0,0,11,728,1.01303531,0.96261064,1.198026376,C_{10}H_{13}BrO,"InChI=1S/C10H13BrO/c1-8(2)7-12-10-6-4-3-5-9(10)11/h3-6,8H,7H2,1-2H3",DCOQYOOGBVINTA-UHFFFAOYSA-N,1-bromo-2-isobutoxybenzene,2.647389772
,,0.48861752,0,0,11,549.1,0.85287886,0.93561706,1.05427391,C_{3}H_{5}ClO_{2},"InChI=1S/C3H5ClO2/c1-2-6-3(4)5/h2H2,1H3",RIFGWPKJUGCATF-UHFFFAOYSA-N,ethyl chloromethanoate,4.228164461
,,0.512670827,0,0,11,663,0.254017741,0.851161591,2.470119623,C_{7}H_{9}N,"InChI=1S/C7H9N/c1-2-7-4-3-5-8-6-7/h3-6H,2H2,1H3",MFEIKQPHQINPRI-UHFFFAOYSA-N,3-ethylpyridine,4.053003746