AAD_Csat,AAD_hfg,AAD_psat,N_Csat,N_hfg,N_psat,Tc_K,c0,c1,c2,formula,inchi,inchikey,name,pc_MPa
,,1.19064706,0,0,27,696,0.205374177,0.821883129,3.069785224,C_{10}H_{12}O_{2},"InChI=1S/C10H12O2/c1-8(2)12-10(11)9-6-4-3-5-7-9/h3-8H,1-2H3",FEXQDZTYJVXMOS-UHFFFAOYSA-N,1-methylethyl benzoate,2.784273011
,,1.218098858,0,0,27,509,1.057841425,0.897618571,0.702347333,C_{5}H_{13}N,"InChI=1S/C5H13N/c1-4-6(3)5-2/h4-5H2,1-3H3",GNVRJGIVDSQCOP-UHFFFAOYSA-N,"N,N-diethylmethylamine",3.24396417
0.084593477,0.382139267,1.298795514,15,1,27,559,0.240786745,0.849946077,2.526205487,C_{5}H_{9}N,"InChI=1S/C5H9N/c1-5(2,3)4-6/h1-3H3",JAMNHZBIQDNHMM-UHFFFAOYSA-N,"2,2-dimethylpropanenitrile",3.115129916
,,1.383434668,0,0,27,680,0.280323136,0.757523122,1.930109659,C_{9}H_{10}O,"InChI=1S/C9H10O/c1-2-8-10-9-6-4-3-5-7-9/h2-7H,1,8H2",POSICDHOUBKJKP-UHFFFAOYSA-N,allyl phenyl ether,3.275155078
,,1.422752063,0,0,27,584.1076755,0.195972453,0.82251995,3.053305818,C_{3}H_{10}N_{2},"InChI=1S/C3H10N2/c1-5-3-2-4/h5H,2-4H2,1H3",KFIGICHILYTCJF-UHFFFAOYSA-N,N-methylethylenediamine,5.544089218
,,1.468250133,0,0,27,215.1944,0.947850422,0.99992741,0.491226052,F_{2}O,InChI=1S/F2O/c1-3-2,UJMWVICAENGCRF-UHFFFAOYSA-N,oxygen difluoride,4.951019605
,,1.479799937,0,0,27,710,0.150838896,0.810918186,3.319525943,C_{10}H_{12}O_{2},"InChI=1S/C10H12O2/c1-2-8-12-10(11)9-6-4-3-5-7-9/h3-7H,2,8H2,1H3",UDEWPOVQBGFNGE-UHFFFAOYSA-N,propyl benzoate,2.615997804
,,1.544864068,0,0,27,771,1.24829202,0.999994933,0.696240422,C_{6}H_{10}O_{2},InChI=1S/C6H10O2/c7-6-4-2-1-3-5-8-6/h1-5H2,PAPBSGBWRJIAAV-UHFFFAOYSA-N,6-hexanolactone,4.355198738
,,1.569541513,0,0,27,644,1.105343681,0.983228194,0.715624311,C_{10}H_{16},"InChI=1S/C10H16/c1-7-8-4-5-9(6-8)10(7,2)3/h8-9H,1,4-6H2,2-3H3",CRPUJAZIXJMDBK-UHFFFAOYSA-N,"2,2-dimethyl-3-methylenebicyclo[2.2.1]heptane",3.103073813
0.232244474,2.068637686,1.646420572,137,3,27,476.21,1.2765105,0.999996186,0.5734487,C_{4}H_{10}O,"InChI=1S/C4H10O/c1-3-4-5-2/h3-4H2,1-2H3",VNKYTQGIUYNRMY-UHFFFAOYSA-N,1-methoxypropane,3.801020545
,0.009688144,1.979451738,0,1,27,693,1.346304011,0.994719979,0.739784781,C_{12}H_{24},"InChI=1S/C12H24/c1-2-3-4-6-9-12-10-7-5-8-11-12/h12H,2-11H2,1H3",QHWAQXOSHHKCFK-UHFFFAOYSA-N,hexylcyclohexane,2.215941533
,0.020299417,2.002814473,0,1,27,793,2.248820995,0.942062564,0.441741319,C_{6}H_{18}N_{4},"InChI=1S/C6H18N4/c7-1-3-9-5-6-10-4-2-8/h9-10H,1-8H2",VILCJCGEZXAXTO-UHFFFAOYSA-N,"1,2-ethanediamine, N,N'-bis(2-aminoethyl)-",3.666879473
,,2.163734258,0,0,27,666.7,0.347443493,0.783841071,1.761536488,C_{8}H_{10}O,"InChI=1S/C8H10O/c1-7-3-5-8(9-2)6-4-7/h3-6H,1-2H3",CHLICZRVGGXEOD-UHFFFAOYSA-N,1-methoxy-4-methylbenzene,3.584744638
0.519641162,0.639375539,2.468851182,4,5,27,514.26,0.268660949,0.806087511,1.904738864,C_{4}H_{11}N,"InChI=1S/C4H11N/c1-3-4(2)5/h4H,3,5H2,1-2H3",BHRZNVHARXXAHW-UHFFFAOYSA-N,2-butanamine,4.036628188
,,2.531599864,0,0,27,628.6,1.08844426,0.999900511,0.990234584,C_{6}H_{11}ClO_{2},"InChI=1S/C6H11ClO2/c1-3-5(2)9-6(8)4-7/h5H,3-4H2,1-2H3",MCUHSYTVMNEJFT-UHFFFAOYSA-N,sec-butyl 2-chloroacetate,3.110172478
,,2.709927269,0,0,27,772,1.233868185,0.999546229,0.770933289,C_{12}H_{12},"InChI=1S/C12H12/c1-9-7-10(2)12-6-4-3-5-11(12)8-9/h3-8H,1-2H3",QHJMFSMPSZREIF-UHFFFAOYSA-N,"1,3-dimethylnaphthalene",2.729998942
,,2.998757493,0,0,27,683,0.667268293,0.925275762,1.64381815,C_{7}H_{6}O_{2},"InChI=1S/C7H6O2/c8-5-6-3-1-2-4-7(6)9/h1-5,9H",SMQUZDBALVYZAC-UHFFFAOYSA-N,2-hydroxybenzaldehyde,3.929133732
,1.095685871,3.12477581,0,1,27,476.31,2.769746,0.436717263,0.519061369,C_{4}H_{4}F_{6}O,"InChI=1S/C4H4F6O/c5-3(6,7)1-11-2-4(8,9)10/h1-2H2",KGPPDNUWZNWPSI-UHFFFAOYSA-N,"1,1,1-trifluoro-2-(2,2,2-trifluoroethoxy)ethane",2.782787554
,,3.203968566,0,0,27,778,1.346571776,0.999685012,0.672421669,C_{12}H_{12},"InChI=1S/C12H12/c1-9-7-8-10(2)12-6-4-3-5-11(9)12/h3-8H,1-2H3",APQSQLNWAIULLK-UHFFFAOYSA-N,"1,4-dimethylnaphthalene",2.789355776
,0.100356874,3.305243757,0,1,27,695.7974108,1.275904672,0.999995819,0.861811263,C_{7}H_{12}N_{2},InChI=1S/C7H12N2/c1-3-7-8-4-2-6-9(7)5-1/h1-6H2,SGUVLZREKBPKCE-UHFFFAOYSA-N,"1,5-diazabicyclo[4.3.0]non-5-ene",2.79631621
,,3.68442155,0,0,27,585,0.521786609,0.922700547,1.67836475,C_{7}H_{14}O,"InChI=1S/C7H14O/c1-6(8)5-7(2,3)4/h5H2,1-4H3",AZASWMGVGQEVCS-UHFFFAOYSA-N,"4,4-dimethyl-2-pentanone",3.100837547
,,3.872426021,0,0,27,827.8850138,1.399473671,0.999929405,0.924540139,C_{12}H_{10}O,"InChI=1S/C12H10O/c13-12-8-6-11(7-9-12)10-4-2-1-3-5-10/h1-9,13H",YXVFYQXJAXKLAK-UHFFFAOYSA-N,"1,1'-biphenyl-4-ol",4.575924664
,,3.910073911,0,0,27,755,0.246353009,0.805858767,3.448338805,C_{14}H_{20}O_{2},"InChI=1S/C14H20O2/c1-2-3-4-5-9-12-16-14(15)13-10-7-6-8-11-13/h6-8,10-11H,2-5,9,12H2,1H3",UMFTYCUYCNMERS-UHFFFAOYSA-N,heptyl benzoate,2.070140601
,,3.954576405,0,0,27,647,0.695257766,0.881186965,2.114412844,C_{11}H_{16}O_{2},"InChI=1S/C11H16O2/c1-3-12-11(13-4-2)10-8-6-5-7-9-10/h5-9,11H,3-4H2,1-2H3",MAQMEXSLUSZDQM-UHFFFAOYSA-N,(diethoxymethyl)benzene,2.822621638
,,5.18906168,0,0,27,664.8,0.614895938,0.853292549,2.497198686,C_{12}H_{24}O_{2},"InChI=1S/C12H24O2/c1-3-4-5-6-7-8-9-10-11-14-12(2)13/h3-11H2,1-2H3",NUPSHWCALHZGOV-UHFFFAOYSA-N,decyl acetate,1.764103756
0.423467007,,6.347449667,13,0,27,679,0.693200455,0.832932043,1.403280681,C_{12}H_{18},"InChI=1S/C12H18/c1-4-10-7-11(5-2)9-12(6-3)8-10/h7-9H,4-6H2,1-3H3",WJYMPXJVHNDZHD-UHFFFAOYSA-N,"1,3,5-triethylbenzene",2.331803326
,,7.227988599,0,0,27,601,1.449235925,0.524891577,0.618661358,C_{9}H_{20}O,"InChI=1S/C9H20O/c1-5-7-8-10-9(3,4)6-2/h5-8H2,1-4H3",FTGPSKPJRKRPSX-UHFFFAOYSA-N,"butyl 1,1-dimethylpropyl ether",2.32617031
,0.140226914,9.390706144,0,1,27,625.5,0.562467387,0.793879947,1.486390666,C_{10}H_{16},"InChI=1S/C10H16/c1-5-10(4)8-6-7-9(2)3/h5,7H,1,4,6,8H2,2-3H3",UAHWPYUMFXYFJY-UHFFFAOYSA-N,"2-methyl-6-methylene-2,7-octadiene",2.473365873
0.219254109,0.828442238,10.82322758,31,5,27,694,0.567999759,0.768026009,1.038047806,C_{6}H_{6}S,"InChI=1S/C6H6S/c7-6-4-2-1-3-5-6/h1-5,7H",RMVRSNDYEFQCLF-UHFFFAOYSA-N,benzenethiol,5.282426004
,,13.49189483,0,0,27,708,0,0.244665007,0.997174079,C_{3}H_{9}NO,"InChI=1S/C3H9NO/c4-2-1-3-5/h5H,1-4H2",WUGQZFFCHPXWKQ-UHFFFAOYSA-N,3-amino-1-propanol,6.00930122
,,13.88779879,0,0,27,652,0,0.447532049,0.962420968,C_{6}H_{13}NO,"InChI=1S/C6H13NO/c1-2-7-3-5-8-6-4-7/h2-6H2,1H3",HVCNXQOWACZAFN-UHFFFAOYSA-N,4-ethylmorpholine,4.580554528
,,18.94655399,0,0,27,782,1.39556391,0.999267459,0.825101715,C_{8}H_{8}O_{3},"InChI=1S/C8H8O3/c1-11-8-4-6(5-9)2-3-7(8)10/h2-5,10H,1H3",MWOOGOJBHIARFG-UHFFFAOYSA-N,vanillin,2.760952931
,,19.55913082,0,0,27,739,0.809675223,0.91119663,1.786981301,C_{9}H_{11}NO,"InChI=1S/C9H11NO/c1-10(2)9(11)8-6-4-3-5-7-8/h3-7H,1-2H3",IMNDHOCGZLYMRO-UHFFFAOYSA-N,"N,N-dimethylbenzamide",3.888836052
0.143165417,,22.2653828,26,0,27,535.76058,1.102705394,0.846350925,0.506233635,C_{2}H_{2}Cl_{2},InChI=1S/C2H2Cl2/c3-1-2-4/h1-2H/b2-1-,KFUSEUYYWQURPO-UPHRSURJSA-N,"(Z)-1,2-dichloroethene",5.392583369
1.189960471,2.652323111,28.53493209,1,6,27,555,0.269637408,0.851243883,2.528549694,C_{4}H_{7}N,"InChI=1S/C4H7N/c1-4(2)3-5/h4H,1-2H3",LRDFRRGEGBBSRN-UHFFFAOYSA-N,2-methylpropanenitrile,4.239616049
3.555914722,,55.07474191,29,0,27,612,2.415008181,0.999329366,0.234472037,C_{2}H_{5}NO_{3},"InChI=1S/C2H5NO3/c1-2-6-3(4)5/h2H2,1H3",IDNUEBSJWINEMI-UHFFFAOYSA-N,ethyl nitrate,4.158910884
,,0.020330397,0,0,26,592.610735,0.358656673,0.818718841,1.729813751,C_{9}H_{20},"InChI=1S/C9H20/c1-7(2)8(3)9(4,5)6/h7-8H,1-6H3",VZFMYOCAEQDWDY-UHFFFAOYSA-N,"2,2,3,4-tetramethylpentane",2.602045061
,,0.112399988,0,0,26,565.3,0.2927554,0.822702376,1.953438861,C_{8}H_{16},"InChI=1S/C8H16/c1-5-8(6-2)7(3)4/h8H,3,5-6H2,1-2,4H3",HPHHYSWOBXEIRG-UHFFFAOYSA-N,3-ethyl-2-methyl-1-pentene,2.935641084
,,0.277143035,0,0,26,423,0.223706545,0.822727335,2.806356258,C_{5}F_{12},"InChI=1S/C5F12/c6-1(3(9,10)11,4(12,13)14)2(7,8)5(15,16)17",MPEFSWGYIJNMCW-UHFFFAOYSA-N,"butane, nonafluoro-2-(trifluoromethyl)-",2.123585304
,,0.361647831,0,0,26,753,0.963508217,0.892133306,1.449567212,C_{10}H_{10}O_{3},"InChI=1S/C10H10O3/c1-7(11)9-3-5-10(6-4-9)13-8(2)12/h3-6H,1-2H3",SMIOEQSLJNNKQF-UHFFFAOYSA-N,4-acetoxyacetophenone,2.943147399
,0.006944682,0.372002619,0,1,26,745,0.380567682,0.856365607,2.450201287,C_{9}H_{9}N,"InChI=1S/C9H9N/c1-10-7-6-8-4-2-3-5-9(8)10/h2-7H,1H3",BLRHMMGNCXNXJL-UHFFFAOYSA-N,1-methylindole,4.135113264
,,0.399843758,0,0,26,754,1.08863551,0.999633911,0.739625636,C_{6}H_{4}Br_{2},InChI=1S/C6H4Br2/c7-5-1-2-6(8)4-3-5/h1-4H,SWJPEBQEEAHIGZ-UHFFFAOYSA-N,"1,4-dibromobenzene",4.247631516
,,0.445236336,0,0,26,592,1.061962796,0.937272889,0.874353645,C_{8}H_{14},"InChI=1S/C8H14/c1-7(2)5-6-8(3)4/h5-6H,1-4H3",DZPCYXCBXGQBRN-UHFFFAOYSA-N,"2,5-dimethyl-2,4-hexadiene",3.02600655
,,0.451760229,0,0,26,359.4,1.023972924,0.942295853,0.818003491,C_{3}F_{6}O,"InChI=1S/C3F6O/c4-1(2(5,6)7)3(8,9)10-1",PGFXOWRDDHCDTE-UHFFFAOYSA-N,"2,2,3-trifluoro-3-(trifluoromethyl)oxirane",2.936093129
,,0.800751923,0,0,26,891,0.339885121,0.814430651,2.368062768,C_{16}H_{12},InChI=1S/C16H12/c1-2-6-13(7-3-1)16-11-10-14-8-4-5-9-15(14)12-16/h1-12H,TURIHPLQSRVWHU-UHFFFAOYSA-N,2-phenylnaphthalene,2.678583647
,,0.890044739,0,0,26,822,2.496104827,0.645320164,0.2907415,C_{7}H_{12}N_{2},"InChI=1S/C7H12N2/c1-7(2)5-9-4-3-8-6-9/h3-4,6-7H,5H2,1-2H3",NPOZBHCPELPGKW-UHFFFAOYSA-N,N-(2-methylpropyl)-imidazole,4.955896807
0.083278272,0.379931553,1.01800559,14,1,26,352.9795349,0.46102301,0.822539622,1.29868941,C_{2}ClF_{5},"InChI=1S/C2ClF5/c3-1(4,5)2(6,7)8",RFCAUADVODFSLZ-UHFFFAOYSA-N,"1-chloro-1,1,2,2,2-pentafluoroethane",3.138566925
,,1.066372599,0,0,26,501,0.362076435,0.892538313,1.6510757,C_{5}H_{6},"InChI=1S/C5H6/c1-2-4-5-3-1/h1-4H,5H2",ZSWFCLXCOIISFI-UHFFFAOYSA-N,"1,3-cyclopentadiene",4.908375931
,,1.206354171,0,0,26,716,2.167483449,0.921946784,0.470155531,C_{10}H_{14}O,"InChI=1S/C10H14O/c1-7(2)9-4-5-10(11)8(3)6-9/h4-7,11H,1-3H3",WYXXLXHHWYNKJF-UHFFFAOYSA-N,2-methyl-4-(1-methylethyl)phenol,2.93199987
,,1.291025486,0,0,26,760,0.758732233,0.893142919,1.926363976,C_{14}H_{18}N_{2},"InChI=1S/C14H18N2/c1-15(2)12-9-5-7-11-8-6-10-13(14(11)12)16(3)4/h5-10H,1-4H3",GJFNRSDCSTVPCJ-UHFFFAOYSA-N,"1,8-bis(dimethylamino)naphthalene",2.601930007
,0.226264092,1.343932727,0,1,26,773.0323765,0.229316043,0.834154333,2.821926336,C_{12}H_{10}O,InChI=1S/C12H10O/c1-3-7-11(8-4-1)13-12-9-5-2-6-10-12/h1-10H,USIUVYZYUHIAEV-UHFFFAOYSA-N,diphenyl ether,3.297110327
,,1.385923302,0,0,26,803,0.511590015,0.879760582,2.072576776,C_{6}H_{5}Cl_{2}N,"InChI=1S/C6H5Cl2N/c7-5-2-1-4(9)3-6(5)8/h1-3H,9H2",SDYWXFYBZPNOFX-UHFFFAOYSA-N,"3,4-dichloroaniline",4.724059408
,,1.45004593,0,0,26,593.47,1.285292063,0.999739943,0.689083923,C_{6}H_{10}O,"InChI=1S/C6H10O/c1-3-4-5-6(2)7/h3H,1,4-5H2,2H3",RNDVGJZUHCKENF-UHFFFAOYSA-N,5-hexen-2-one,3.528885388
,,1.465333132,0,0,26,796,1.580033809,0.530115817,0.424481869,C_{6}H_{4}Cl_{2}O,"InChI=1S/C6H4Cl2O/c7-4-1-2-6(9)5(8)3-4/h1-3,9H",HFZWRUODUSTPEG-UHFFFAOYSA-N,"2,4-dichlorophenol",5.373483826
0.092293446,,1.503300496,14,0,26,566,0.863756746,0.851353379,0.815239583,C_{7}H_{14},"InChI=1S/C7H14/c1-6-4-3-5-7(6)2/h6-7H,3-5H2,1-2H3/t6-,7+",RIRARCHMRDHZAR-KNVOCYPGSA-N,"1,cis-2-dimethylcyclopentane",3.552846244
,0.421060125,1.671507594,0,1,26,520.9,0.518245741,0.923710128,1.669102602,C_{4}H_{9}Cl,"InChI=1S/C4H9Cl/c1-4(2)3-5/h4H,3H2,1-2H3",QTBFPMKWQKYFLR-UHFFFAOYSA-N,1-chloro-2-methylpropane,4.523924119
,,1.856145279,0,0,26,757,0.851374201,0.932944089,1.068636332,C_{6}H_{4}ClI,InChI=1S/C6H4ClI/c7-5-3-1-2-4-6(5)8/h1-4H,MPEOPBCQHNWNFB-UHFFFAOYSA-N,1-chloro-2-iodobenzene,4.480012018
,,1.857101644,0,0,26,660,0.292311571,0.820118286,3.107925747,C_{4}H_{8}O_{3},"InChI=1S/C4H8O3/c1-4(6)7-3-2-5/h5H,2-3H2,1H3",HXDLWJWIAHWIKI-UHFFFAOYSA-N,2-hydroxyethyl acetate,4.43126337
0.188900577,,1.866496618,21,0,26,496.8,1.070280235,0.906426223,0.662877282,C_{5}H_{8},"InChI=1S/C5H8/c1-3-5-4-2/h3-4H,1-2H3",PODAMDNJNMAKAZ-UHFFFAOYSA-N,"2,3-pentadiene",4.236201179
,,1.991421589,0,0,26,679,0.343867095,0.82915845,2.91885126,C_{15}H_{24},"InChI=1S/C15H24/c1-10(2)13-7-14(11(3)4)9-15(8-13)12(5)6/h7-12H,1-6H3",VUMCUSHVMYIRMB-UHFFFAOYSA-N,"1,3,5-tris(1-methylethyl)benzene",1.730732743
,,2.347384053,0,0,26,698.5,0.626394136,0.86915185,2.268385457,C_{3}H_{7}NO,"InChI=1S/C3H7NO/c1-2-3(4)5/h2H2,1H3,(H2,4,5)",QLNJFJADRCOGBJ-UHFFFAOYSA-N,propanamide,5.358542127
,0.018544708,2.430241514,0,1,26,580,1.154394108,0.847094084,0.623706518,C_{7}H_{12},"InChI=1S/C7H12/c1-2-7-5-3-4-6-7/h5H,2-4,6H2,1H3",QYYQTLLGVAPKPN-UHFFFAOYSA-N,1-ethylcyclopentene,3.751884331
,,2.508727451,0,0,26,811,0,0.262166207,0.641397131,C_{6}H_{5}Cl_{2}P,InChI=1S/C6H5Cl2P/c7-9(8)6-4-2-1-3-5-6/h1-5H,IMDXZWRLUZPMDH-UHFFFAOYSA-N,dichlorophenylphosphine,4.067219805
,,2.754394179,0,0,26,742,0.57288048,0.923675604,1.669522624,C_{5}H_{10}N_{2}O,InChI=1S/C5H10N2O/c8-6-7-4-2-1-3-5-7/h1-5H2,UWSDONTXWQOZFN-UHFFFAOYSA-N,1-nitrosopiperidine,5.236373514
,1.070327094,2.807543223,0,1,26,504,0,0.132922726,1.121455659,C_{3}H_{3}F_{5}O,"InChI=1S/C3H3F5O/c4-2(5,1-9)3(6,7)8/h9H,1H2",PSQZJKGXDGNDFP-UHFFFAOYSA-N,"2,2,3,3,3-pentafluoropropanol",3.447025418
,,2.835629826,0,0,26,840,0.704706867,0.318963175,0.680245608,C_{6}H_{10}N_{2}O,"InChI=1S/C6H10N2O/c1-9-5-4-8-3-2-7-6-8/h2-3,6H,4-5H2,1H3",FPIOHADYDKAXRD-UHFFFAOYSA-N,1-(2-methoxyethyl)-1H-imidazole,5.261193451
,2.200351499,2.976533444,0,1,26,654.3113134,0.243558291,0.817420592,3.168202494,C_{10}H_{20}O_{2},"InChI=1S/C10H20O2/c1-3-5-6-7-8-9-10(11)12-4-2/h3-9H2,1-2H3",YYZUSRORWSJGET-UHFFFAOYSA-N,ethyl octanoate,2.184955348
0.286039383,,3.074582389,48,0,26,625,0.678542022,0.838225958,1.181601107,C_{9}H_{18},"InChI=1S/C9H18/c1-2-3-6-9-7-4-5-8-9/h9H,2-8H2,1H3",ZAGHKONXGGSVDV-UHFFFAOYSA-N,butylcyclopentane,2.848371525
,0.311448106,3.173210462,0,1,26,615.9,0.093619953,0.828322264,2.900469545,C_{6}H_{4}ClF,InChI=1S/C6H4ClF/c7-5-2-1-3-6(8)4-5/h1-4H,VZHJIJZEOCBKRA-UHFFFAOYSA-N,1-chloro-3-fluorobenzene,4.211566807
,,3.743100706,0,0,26,825,1.484105925,0.995175689,0.724924594,C_{18}H_{32},"InChI=1S/C18H32/c1-3-9-15(10-4-1)17-13-7-8-14-18(17)16-11-5-2-6-12-16/h15-18H,1-14H2",JSVILEFZXZLOES-UHFFFAOYSA-N,"1,1':2',1''-tercyclohexane",1.815239278
1.309742241,2.908444406,3.753406709,49,3,26,559.3,1.311529797,0.999979283,0.541528764,C_{4}H_{10}S,"InChI=1S/C4H10S/c1-4(2)3-5/h4-5H,3H2,1-2H3",BDFAOUQQXJIZDG-UHFFFAOYSA-N,2-methyl-1-propanethiol,4.064800924
0.171600689,,4.150558929,8,0,26,604.9,0.481383084,0.806883989,1.694931381,C_{10}H_{22},"InChI=1S/C10H22/c1-9(2)7-5-6-8-10(3)4/h9-10H,5-8H2,1-4H3",KEVMYFLMMDUPJE-UHFFFAOYSA-N,"2,7-dimethyloctane",2.095832473
,,4.357667127,0,0,26,684,1.065299904,0.999934077,0.832882572,C_{10}H_{16},"InChI=1S/C10H16/c1-2-9-7-4-5-8(6-7)10(9)3-1/h7-10H,1-6H2",LPSXSORODABQKT-UHFFFAOYSA-N,"tricyclo[5.2.1.0(2,6)]decane",3.583895308
,,4.702536574,0,0,26,874,0.665232471,0.896808158,1.935153986,C_{15}H_{12},"InChI=1S/C15H12/c1-11-14-8-4-2-6-12(14)10-13-7-3-5-9-15(11)13/h2-10H,1H3",CPGPAVAKSZHMBP-UHFFFAOYSA-N,9-methylanthracene,3.355613826
,,5.045941546,0,0,26,679,1.855529408,0.001580343,0.70181351,C_{7}H_{6}Cl_{2},"InChI=1S/C7H6Cl2/c8-7(9)6-4-2-1-3-5-6/h1-5,7H",CAHQGWAXKLQREW-UHFFFAOYSA-N,(dichloromethyl)benzene,3.773009964
,,5.458286404,0,0,26,727,1.384955188,0.99951403,0.764241389,C_{9}H_{12}O,"InChI=1S/C9H12O/c1-2-3-8-4-6-9(10)7-5-8/h4-7,10H,2-3H2,1H3",KLSLBUSXWBJMEC-UHFFFAOYSA-N,4-propylphenol,3.391862915
,,5.742523498,0,0,26,639.3037962,1.402246588,0.998853356,0.696449485,C_{8}H_{16}O,"InChI=1S/C8H16O/c1-2-3-4-5-6-7-8-9/h8H,2-7H2,1H3",NUJGJRNETVAIRJ-UHFFFAOYSA-N,octanal,2.954800849
,,5.929556459,0,0,26,745,1.22764583,0.998937564,0.650457034,C_{6}H_{3}Cl_{3},InChI=1S/C6H3Cl3/c7-4-2-1-3-5(8)6(4)9/h1-3H,RELMFMZEBKVZJC-UHFFFAOYSA-N,"1,2,3-trichlorobenzene",3.787748977
,,6.021108365,0,0,26,814,0.295163811,0.822266173,3.061320048,C_{14}H_{12}O_{2},"InChI=1S/C14H12O2/c15-14(13-9-5-2-6-10-13)16-11-12-7-3-1-4-8-12/h1-10H,11H2",SESFRYSPDFLNCH-UHFFFAOYSA-N,benzyl benzoate,2.558204998
0.576850688,0.238734658,6.272467196,44,3,26,512.7,1.373581467,0.999864466,0.460303819,C_{3}H_{8}S,"InChI=1S/C3H8S/c1-3(2)4/h3-4H,1-2H3",KJRCEJOSASVSRA-UHFFFAOYSA-N,2-propanethiol,4.515567882
,,6.409162231,0,0,26,835,1.314832038,0.999655442,0.892630644,C_{6}H_{6}N_{2}O_{2},"InChI=1S/C6H6N2O2/c7-5-2-1-3-6(4-5)8(9)10/h1-4H,7H2",XJCVRTZCHMZPBD-UHFFFAOYSA-N,3-nitrobenzenamine,4.563999256
,,9.652031423,0,0,26,756,1.507069756,0.999309443,0.653251998,C_{14}H_{26},"InChI=1S/C14H26/c1-3-7-13(8-4-1)11-12-14-9-5-2-6-10-14/h13-14H,1-12H2",IBLVSWYGUFGDMF-UHFFFAOYSA-N,"1,2-dicyclohexylethane",2.096021908
,,12.8896676,0,0,26,679,1.230330691,0.741062125,0.676670393,C_{10}H_{12},"InChI=1S/C10H12/c1-9(2)8-10-6-4-3-5-7-10/h3-8H,1-2H3",BTOVVHWKPVSLBI-UHFFFAOYSA-N,2-methyl-1-phenylpropene,3.186676674
0.756675434,4.259070201,13.25783386,27,1,26,564,0.854753097,0.804759394,1.004167216,CH_{6}N_{2},"InChI=1S/CH6N2/c1-3-2/h3H,2H2,1H3",HDZGCSFEDULWCS-UHFFFAOYSA-N,methylhydrazine,8.893149308
,1.543359237,15.16187113,0,1,26,669,0.851913422,0.935811232,1.499402496,C_{6}H_{15}O_{4}P,"InChI=1S/C6H15O4P/c1-4-8-11(7,9-5-2)10-6-3/h4-6H2,1-3H3",DQWPFSLDHJDLRL-UHFFFAOYSA-N,ethyl phosphate,2.387236587
,1.222716106,25.76983139,0,1,26,506,0.830121299,0.136833532,1.021339145,C_{4}H_{3}F_{7}O,"InChI=1S/C4H3F7O/c5-2(6,1-12)3(7,8)4(9,10)11/h12H,1H2",WXJFKAZDSQLPBX-UHFFFAOYSA-N,"2,2,3,3,4,4,4-heptafluorobutanol",2.672218024
,0.396472174,53.72359813,0,1,26,665,0.55779432,0.713487328,1.949957391,C_{5}H_{12}O_{2},"InChI=1S/C5H12O2/c1-2-3-5(7)4-6/h5-7H,2-4H2,1H3",WCVRQHFDJLLWFE-UHFFFAOYSA-N,"1,2-pentanediol",4.013030678
,,0.021584078,0,0,25,642.1,0.252087983,0.821829501,2.323763217,C_{10}H_{20},"InChI=1S/C10H20/c1-9(2)8-10-6-4-3-5-7-10/h9-10H,3-8H2,1-2H3",FFROMNOQCNVNIH-UHFFFAOYSA-N,2-methylpropylcyclohexane,2.615499261
,,0.061160013,0,0,25,655,0.725032498,0.848995637,1.268707019,C_{9}H_{16}O_{2},"InChI=1S/C9H16O2/c1-7-5-3-4-6-9(7)11-8(2)10/h7,9H,3-6H2,1-2H3",AKIIJALHGMKJEJ-UHFFFAOYSA-N,2-methylcyclohexyl acetate,2.726390174
,,0.065460549,0,0,25,803,0.318479228,0.815570731,2.18049349,C_{12}H_{22}S,"InChI=1S/C12H22S/c1-3-7-11(8-4-1)13-12-9-5-2-6-10-12/h11-12H,1-10H2",FTAORUVBXKFVDA-UHFFFAOYSA-N,dicyclohexyl sulfide,2.847862426
,,0.105756789,0,0,25,608,0.187986125,0.851410692,2.526769579,C_{6}H_{14}S,"InChI=1S/C6H14S/c1-5(2)6(3,4)7/h5,7H,1-4H3",CRJLQECEGNIMNG-UHFFFAOYSA-N,"2,3-dimethyl-2-butanethiol",3.585637455
,,0.118912391,0,0,25,607.51,0.64301963,0.855125847,1.172284809,C_{9}H_{20},"InChI=1S/C9H20/c1-7(2)9(5,6)8(3)4/h7-8H,1-6H3",JLCYYQOQSAMWTA-UHFFFAOYSA-N,"2,3,3,4-tetramethylpentane",2.716106203
,,0.323029221,0,0,25,672,0.414270545,0.813323087,1.620177062,C_{5}H_{6}N_{2},"InChI=1S/C5H6N2/c1-5(2,3-6)4-7/h1-2H3",BCMJJXWXMZYZKN-UHFFFAOYSA-N,"propanedinitrile, dimethyl-",4.221151022
,,0.341809682,0,0,25,679,0.36488613,0.846516214,2.605929693,C_{6}H_{3}F_{2}NO_{2},InChI=1S/C6H3F2NO2/c7-4-1-2-6(9(10)11)5(8)3-4/h1-3H,RJXOVESYJFXCGI-UHFFFAOYSA-N,"2,4-difluoronitrobenzene",3.348033292
,0.003232717,0.538298817,0,1,25,565.5,0.522849168,0.809288381,1.497684585,C_{7}H_{14}O_{2},"InChI=1S/C7H14O2/c1-5-9-6(8)7(2,3)4/h5H2,1-4H3",HHEIMYAXCOIQCJ-UHFFFAOYSA-N,"ethyl 2,2-dimethylpropanoate",2.847830359
0.091245182,,0.609899971,36,0,25,607.51,0.407917923,0.807621723,1.519103833,C_{9}H_{20},"InChI=1S/C9H20/c1-7-9(5,6)8(2,3)4/h7H2,1-6H3",QUKOJKFJIHSBKV-UHFFFAOYSA-N,"2,2,3,3-tetramethylpentane",2.743491414
,0.160763652,0.619572088,0,2,25,378.77324,0.925582563,0.999983399,0.544329696,COS,InChI=1S/COS/c2-1-3,JJWKPURADFRFRB-UHFFFAOYSA-N,carbonyl sulfide,6.346811231
,,0.634248697,0,0,25,705.9,1.136580665,0.999950614,0.747608863,C_{7}H_{8}S,"InChI=1S/C7H8S/c1-8-7-5-3-2-4-6-7/h2-6H,1H3",HNKJADCVZUBCPG-UHFFFAOYSA-N,1-phenyl-1-thiaethane,4.098498325
,0.012427042,0.696975085,0,1,25,581,1.219671811,0.870441278,0.670354602,C_{6}H_{12}O_{2},"InChI=1S/C6H12O2/c1-7-6(8-2)4-3-5-6/h3-5H2,1-2H3",LLZPXMCHUMPYRH-UHFFFAOYSA-N,"1,1-dimethoxycyclobutane",3.922281757
,,0.740086243,0,0,25,656,0.43500422,0.811421055,1.563934392,C_{7}H_{12}O,"InChI=1S/C7H12O/c1-6-3-2-4-7(8)5-6/h6H,2-5H2,1H3",UJBOOUHRTQVGRU-UHFFFAOYSA-N,dl-3-methylcyclohexanone,3.311591335