AAD_Csat,AAD_hfg,AAD_psat,N_Csat,N_hfg,N_psat,Tc_K,c0,c1,c2,formula,inchi,inchikey,name,pc_MPa
,0.042534938,4.619229074,0,1,50,779.2,0.526241799,0.815124432,3.220801657,C_{23}H_{46},"InChI=1S/C23H46/c1-3-5-7-9-11-13-15-17-19-21-23-22-20-18-16-14-12-10-8-6-4-2/h17,19H,3-16,18,20-23H2,1-2H3/b19-17+",IGOWHGRNPLFNDJ-HTXNQAPBSA-N,(E)-9-tricosene,0.953635392
,,5.157846601,0,0,50,912.9752128,1.090869721,0.975415995,1.121050724,C_{18}H_{14},InChI=1S/C18H14/c1-3-7-15(8-4-1)17-11-13-18(14-12-17)16-9-5-2-6-10-16/h1-14H,XJKSTNDFUHDPQJ-UHFFFAOYSA-N,p-terphenyl,2.750344846
,0.049203258,5.510251882,0,1,50,778.4,0.516345727,0.814175767,3.242819252,C_{23}H_{46},"InChI=1S/C23H46/c1-3-5-7-9-11-13-15-17-19-21-23-22-20-18-16-14-12-10-8-6-4-2/h17,19H,3-16,18,20-23H2,1-2H3/b19-17-",IGOWHGRNPLFNDJ-ZPHPHTNESA-N,(Z)-tricos-9-ene,0.952700972
,,10.97586944,0,0,50,739.2,1.956859174,0.797884805,0.619253458,C_{4}H_{12}N_{2}O,"InChI=1S/C4H12N2O/c5-1-2-6-3-4-7/h6-7H,1-5H2",LHIJANUOQQMGNT-UHFFFAOYSA-N,N-(2-aminoethyl)ethanolamine,4.463601906
,,16.30024592,0,0,50,854.710996,0.368786297,0.784552612,4.019011706,C_{31}H_{64},"InChI=1S/C31H64/c1-3-5-7-9-11-13-15-17-19-21-23-25-27-29-31-30-28-26-24-22-20-18-16-14-12-10-8-6-4-2/h3-31H2,1-2H3",IUJAMGNYPWYUPM-UHFFFAOYSA-N,hentriacontane,0.686781877
,,19.30973484,0,0,50,888.8,0.462547308,0.788095168,3.960333821,C_{37}H_{76},"InChI=1S/C37H76/c1-3-5-7-9-11-13-15-17-19-21-23-25-27-29-31-33-35-37-36-34-32-30-28-26-24-22-20-18-16-14-12-10-8-6-4-2/h3-37H2,1-2H3",PXEZIKSRSYGOED-UHFFFAOYSA-N,heptatriacontane,0.56465115
,7.016477926,20.0016433,0,3,50,643,0,0.384389698,0.544337149,C_{3}H_{7}NO_{3},"InChI=1S/C3H7NO3/c1-3(2)7-4(5)6/h3H,1-2H3",GAPFWGOSHOCNBM-UHFFFAOYSA-N,isopropyl nitrate,3.689149964
,,0.182277217,0,0,49,918,0.404072704,0.814883674,1.674152719,C_{12}H_{8}OS,InChI=1S/C12H8OS/c1-3-7-11-9(5-1)13-10-6-2-4-8-12(10)14-11/h1-8H,GJSGGHOYGKMUPT-UHFFFAOYSA-N,phenoxathiin,4.531745891
,,0.2203223,0,0,49,486.4053145,0.469592493,0.789008644,1.646817492,C_{7}F_{14},"InChI=1S/C7F14/c8-1(7(19,20)21)2(9,10)4(13,14)6(17,18)5(15,16)3(1,11)12",QIROQPWSJUXOJC-UHFFFAOYSA-N,(trifluoromethyl)undecaflurocyclohexane,2.019309091
,,0.36644199,0,0,49,549,0.582477828,0.929887419,1.419304387,C_{6}H_{10},"InChI=1S/C6H10/c1-2-5-4-6(5)3-1/h5-6H,1-4H2",JAPMJSVZDUYFKL-UHFFFAOYSA-N,bicyclo[3.1.0]hexane,5.184963243
,,0.702305743,0,0,49,683,0.809014309,0.847082973,1.174869032,C_{12}H_{18},"InChI=1S/C12H18/c1-9-6-10(2)8-11(7-9)12(3,4)5/h6-8H,1-5H3",FZSPYHREEHYLCB-UHFFFAOYSA-N,"1,3-dimethyl-5-(1,1-dimethylethyl)benzene",2.677838277
0.474299312,,1.411998473,21,0,49,569.48326,1.018363328,0.902439636,0.712569749,C_{7}H_{14},"InChI=1S/C7H14/c1-2-7-5-3-4-6-7/h7H,2-6H2,1H3",IFTRQJLVEBNKJK-UHFFFAOYSA-N,ethylcyclopentane,3.396938937
,,1.483940787,0,0,49,517.5353746,0.817090624,0.999856409,0.935806502,CH_{3}Cl_{3}Si,"InChI=1S/CH3Cl3Si/c1-5(2,3)4/h1H3",JLUFWMXJHAVVNN-UHFFFAOYSA-N,trichloromethylsilane,3.53141463
,,1.564122375,0,0,49,502.8,1.449935463,0.876205982,0.448837457,C_{3}H_{5}Cl,"InChI=1S/C3H5Cl/c1-2-3-4/h2H,1,3H2",OSDWBNJEKMUWAV-UHFFFAOYSA-N,3-chloro-1-propene,4.622367485
,,1.912243926,0,0,49,706.84293,1.211446786,0.999991441,0.838096812,C_{8}H_{10}O,"InChI=1S/C8H10O/c1-6-3-4-7(2)8(9)5-6/h3-5,9H,1-2H3",NKTOLZVEWDHZMU-UHFFFAOYSA-N,"2,5-dimethylphenol",3.820987828
,,2.225109181,0,0,49,926,1.264795409,0.999559116,0.75547599,C_{12}H_{8}S_{2},InChI=1S/C12H8S2/c1-2-6-10-9(5-1)13-11-7-3-4-8-12(11)14-10/h1-8H,GVIJJXMXTUZIOD-UHFFFAOYSA-N,thianthrene,3.166841168
,,3.333766097,0,0,49,855.1160893,0.390817191,0.828809276,2.926814261,C_{6}H_{3}N_{3}O_{6},InChI=1S/C6H3N3O6/c10-7(11)4-1-5(8(12)13)3-6(2-4)9(14)15/h1-3H,UATJOMSPNYCXIX-UHFFFAOYSA-N,"1,3,5-trinitrobenzene",2.937525101
,,4.129626201,0,0,49,569,1.198254238,0.994289761,0.743246283,C_{6}H_{16}N_{2},"InChI=1S/C6H16N2/c1-7(2)5-6-8(3)4/h5-6H2,1-4H3",KWYHDKDOAIKMQN-UHFFFAOYSA-N,"N,N,N',N'-tetramethyl-1,2-diaminoethane",2.768267038
0.286174132,,4.199722358,37,0,49,611,0.811403723,0.826680999,0.858703735,C_{5}H_{7}N,"InChI=1S/C5H7N/c1-6-4-2-3-5-6/h2-5H,1H3",OXHNLMTVIGZXSG-UHFFFAOYSA-N,N-methylpyrrole,5.885935588
,,5.101247168,0,0,49,722.86209,0.908030034,0.980466888,1.106951341,C_{8}H_{10}O,"InChI=1S/C8H10O/c1-6-4-3-5-8(9)7(6)2/h3-5,9H,1-2H3",QWBBPBRQALCEIZ-UHFFFAOYSA-N,"2,3-dimethylphenol",3.870571983
0.202564816,0.546195179,6.061381819,38,1,49,616,0.89743221,0.827868551,1.072290474,C_{10}H_{20},"InChI=1S/C10H20/c1-3-5-7-9-10-8-6-4-2/h3H,1,4-10H2,2H3",AFFLGGQVNFXPEV-UHFFFAOYSA-N,1-decene,2.156739584
,,6.27199405,0,0,49,723.5,1.598156223,0.851303436,0.621492342,C_{8}H_{10}O,"InChI=1S/C8H10O/c9-7-6-8-4-2-1-3-5-8/h1-5,9H,6-7H2",WRMNZCZEMHIOCP-UHFFFAOYSA-N,2-phenylethanol,4.038890793
,,6.381083423,0,0,49,805,0.412653023,0.834467166,2.573823751,C_{7}H_{6}N_{2}O_{4},"InChI=1S/C7H6N2O4/c1-5-2-3-6(8(10)11)4-7(5)9(12)13/h2-4H,1H3",RMBFBMJGBANMMK-UHFFFAOYSA-N,"2,4-dinitrotoluene",2.858858014
0.132379289,,7.598621345,21,0,49,708,0.832932502,0.815826054,1.243700483,C_{13}H_{20},"InChI=1S/C13H20/c1-2-3-4-5-7-10-13-11-8-6-9-12-13/h6,8-9,11-12H,2-5,7,10H2,1H3",LBNXAWYDQUGHGX-UHFFFAOYSA-N,heptylbenzene,2.135482448
,,17.10118318,0,0,49,893.7,0.508330181,0.791836235,3.846860885,C_{38}H_{78},"InChI=1S/C38H78/c1-3-5-7-9-11-13-15-17-19-21-23-25-27-29-31-33-35-37-38-36-34-32-30-28-26-24-22-20-18-16-14-12-10-8-6-4-2/h3-38H2,1-2H3",BVKCQBBZBGYNOP-UHFFFAOYSA-N,octatriacontane,0.549193885
,,21.11476271,0,0,49,844,0.680742134,0.92344929,1.671144165,C_{13}H_{10}O,"InChI=1S/C13H10O/c1-3-7-12-10(5-1)9-11-6-2-4-8-13(11)14-12/h1-8H,9H2",GJCOSYZMQJWQCA-UHFFFAOYSA-N,10H-9-oxaanthracene,3.245227034
,,0.057653973,0,0,48,643,0.743955164,0.851942048,1.055678158,C_{10}H_{18},"InChI=1S/C10H18/c1-7-4-5-8-6-9(7)10(8,2)3/h7-9H,4-6H2,1-3H3/t7-,8-,9-/m0/s1",XOKSLPVRUOBDEW-CIUDSAMLSA-N,(-)-trans-pinane,2.746258063
,,0.227173743,0,0,48,477.4,1.3851624,0.982434363,0.466738558,C_{6}H_{12},"InChI=1S/C6H12/c1-5-6(2,3)4/h5H,1H2,2-4H3",PKXHXOTZMFCXSH-UHFFFAOYSA-N,"3,3-dimethyl-1-butene",3.015097754
0.000506485,,0.657826393,1,0,48,606.2,0.720253051,0.844401914,1.107687273,C_{3}H_{7}NO_{2},"InChI=1S/C3H7NO2/c1-2-3-4(5)6/h2-3H2,1H3",JSZOAYXJRCEYSX-UHFFFAOYSA-N,1-nitropropane,3.814269235
,,0.665623618,0,0,48,762,1.265754128,0.999983799,0.846913767,C_{6}H_{3}Cl_{2}NO_{2},InChI=1S/C6H3Cl2NO2/c7-5-2-1-4(9(10)11)3-6(5)8/h1-3H,NTBYINQTYWZXLH-UHFFFAOYSA-N,"3,4-dichloro-1-nitrobenzene",3.646724965
,,1.181909174,0,0,48,674,1.980166901,0.832049263,0.641409012,C_{10}H_{20}O,"InChI=1S/C10H20O/c1-9(2)5-4-6-10(3)7-8-11/h5,10-11H,4,6-8H2,1-3H3/t10-/m0/s1",QMVPMAAFGQKVCJ-JTQLQIEISA-N,"(S)-3,7-dimethyl-6-octen-1-ol",2.315993453
,1.043051566,1.230698973,0,1,48,591.88587,0.146930382,0.840958966,2.700432172,Cl_{4}Sn,InChI=1S/4ClH.Sn/h4*1H;/q;;;;+4/p-4,HPGGPRDJHPYFRM-UHFFFAOYSA-J,stannic chloride,3.743801168
,0.016495622,2.073586822,0,1,48,605.6,1.174210695,0.999627332,0.627575166,C_{8}H_{16},"InChI=1S/C8H16/c1-7-5-3-4-6-8(7)2/h7-8H,3-6H2,1-2H3/t7-,8+",KVZJLSYJROEPSQ-OCAPTIKFSA-N,"cis-1,2-dimethylcyclohexane",3.212542801
,,2.117915775,0,0,48,716.46401,0.335316951,0.73858096,1.947776957,C_{8}H_{10}O,"InChI=1S/C8H10O/c1-2-7-4-3-5-8(9)6-7/h3-6,9H,2H2,1H3",HMNKTRSOROOSPP-UHFFFAOYSA-N,3-ethylphenol,3.869835198
,4.71032973,6.304700231,0,3,48,610.25997,0.251487985,0.847426385,2.590673821,C_{5}H_{9}N,"InChI=1S/C5H9N/c1-2-3-4-5-6/h2-4H2,1H3",RFFFKMOABOFIDF-UHFFFAOYSA-N,pentanenitrile,3.580247413
,5.6955494,15.2173625,0,1,48,627,0.791512475,0.910305924,1.795883344,C_{5}H_{8}O_{2},"InChI=1S/C5H8O2/c1-3-4(2)5(6)7/h2-3H2,1H3,(H,6,7)",WROUWQQRXUBECT-UHFFFAOYSA-N,2-methylenebutanoic acid,3.956160841
,0.067282078,0.448591004,0,2,47,565.452454,0.244718514,0.828746026,2.424041706,C_{8}H_{18},"InChI=1S/C8H18/c1-4-7-8(5-2)6-3/h8H,4-7H2,1-3H3",SFRKSDZMZHIISH-UHFFFAOYSA-N,3-ethylhexane,2.60913861
0.449996898,0.671216821,0.507688382,35,6,47,655.48154,0.43084783,0.826594251,1.62110219,C_{7}H_{9}N,"InChI=1S/C7H9N/c1-6-4-3-5-8-7(6)2/h3-5H,1-2H3",HPYNZHMRTTWQTB-UHFFFAOYSA-N,"2,3-dimethylpyridine",4.032007039
,0.58726985,0.706534761,0,2,47,590.7,0.402202603,0.799902959,1.660790689,C_{8}H_{14},"InChI=1S/C8H14/c1-3-5-7-8-6-4-2/h1H,4-8H2,2H3",UMIPWJGWASORKV-UHFFFAOYSA-N,1-octyne,3.378499473
,0.274243889,1.438663506,0,2,47,538.9973124,1.232462388,0.999979133,0.674449009,C_{4}H_{10}O_{2},"InChI=1S/C4H10O2/c1-5-3-4-6-2/h3-4H2,1-2H3",XTHFKEDIFFGKHM-UHFFFAOYSA-N,"1,2-dimethoxyethane",3.907041314
0.170124032,2.279079317,1.839831905,13,1,47,306.8825,0.371701858,0.812885186,1.396004617,C_{2}F_{4},InChI=1S/C2F4/c3-1(4)2(5)6,BFKJFAAPBSQJPD-UHFFFAOYSA-N,tetrafluoroethene,3.961285397
0.177181807,,2.21722843,130,0,47,521.6,1.41284423,0.997827969,0.594900111,C_{7}H_{16}O,"InChI=1S/C7H16O/c1-6(2)8-7(3,4)5/h6H,1-5H3",HNFSPSWQNZVCTB-UHFFFAOYSA-N,"1-methylethyl 1,1-dimethylethyl ether",2.639134493
,,2.570194039,0,0,47,556.949823,0.9606616,0.999714102,0.544660104,C_{4}H_{9}NO_{2},"InChI=1S/C4H9NO2/c1-3-4(2)7-5-6/h4H,3H2,1-2H3",NFGNZNFBQAGBJA-UHFFFAOYSA-N,1-methylpropyl nitrite,3.731561474
1.326571775,4.34723866,2.774608318,48,6,47,460.2,1.398626947,0.999984289,0.448706221,C_{4}H_{6},"InChI=1S/C4H6/c1-3-4-2/h1H,4H2,2H3",KDKYADYSIPSCCQ-UHFFFAOYSA-N,1-butyne,6.527068163
,,3.668177587,0,0,47,582,0.742656039,0.87714126,2.164454366,C_{4}H_{9}NO,"InChI=1S/C4H9NO/c1-3-4(2)5-6/h6H,3H2,1-2H3/b5-4+",WHIVNJATOVLWBW-SNAWJCMRSA-N,2-butanone oxime,4.742452933
0.784633966,0.065957121,5.434652825,50,2,47,498.76268,1.291935643,0.999396058,0.46248059,C_{2}H_{6}S,"InChI=1S/C2H6S/c1-2-3/h3H,2H2,1H3",DNJIEGIFACGWOD-UHFFFAOYSA-N,ethanethiol,5.51100565
,,8.043500538,0,0,47,700,1.237515756,0.999479001,0.841368083,C_{9}H_{10}O_{2},"InChI=1S/C9H10O2/c1-8(10)11-7-9-5-3-2-4-6-9/h2-6H,7H2,1H3",QUKGYYKBILRGFE-UHFFFAOYSA-N,benzyl ethanoate,3.2909055
1.821434946,,8.10536508,6,0,47,493.1,1.919770989,0.999262835,0.373819246,C_{6}H_{12},"InChI=1S/C6H12/c1-4-5-6(2)3/h4,6H,1,5H2,2-3H3",WSSSPWUEQFSQQG-UHFFFAOYSA-N,4-methyl-1-pentene,3.168420308
,,9.826785753,0,0,47,892,0.263852277,0.796840214,1.925197848,C_{8}H_{8}N_{2},"InChI=1S/C8H8N2/c1-10-6-9-7-4-2-3-5-8(7)10/h2-6H,1H3",FGYADSCZTQOAFK-UHFFFAOYSA-N,1-methylbenzimidazole,4.755369688
,0.378656459,16.42661476,0,1,47,848,0.463196685,0.876031586,2.177710221,C_{10}H_{7}I,InChI=1S/C10H7I/c11-10-7-3-5-8-4-1-2-6-9(8)10/h1-7H,NHPPIJMARIVBGU-UHFFFAOYSA-N,1-iodonaphthalene,4.21835469
3.079770921,,73.30079248,56,0,47,702.9441,1.923351597,0.999934891,0.820887999,C_{11}H_{24}O,"InChI=1S/C11H24O/c1-2-3-4-5-6-7-8-9-10-11-12/h12H,2-11H2,1H3",KJIOQYGWTQBHNH-UHFFFAOYSA-N,1-undecanol,2.284040769
,,1.188708353,0,0,46,650.28258,0.343581221,0.837378484,2.074567035,C_{10}H_{14},"InChI=1S/C10H14/c1-9(2)8-10-6-4-3-5-7-10/h3-7,9H,8H2,1-2H3",KXUHSQYYJYAXGZ-UHFFFAOYSA-N,(2-methylpropyl)benzene,3.050963387
,,1.266699597,0,0,46,709.8,1.646896597,0.99434238,0.576475273,C_{4}H_{13}N_{3},"InChI=1S/C4H13N3/c5-1-3-7-4-2-6/h7H,1-6H2",RPNUMPOLZDHAAY-UHFFFAOYSA-N,di(2-aminoethyl)amine,4.39383149
,1.107777818,1.359810366,0,1,46,301.9449019,1.34777899,0.999676423,0.440494863,CClF_{3},"InChI=1S/CClF3/c2-1(3,4)5",AFYPFACVUDMOHA-UHFFFAOYSA-N,chlorotrifluoromethane,3.887706428
0.152132371,0.277913231,1.635069324,9,9,46,573.524034,0.216611231,0.828208071,2.240244912,C_{8}H_{18},"InChI=1S/C8H18/c1-6-8(4,5)7(2)3/h7H,6H2,1-5H3",OKVWYBALHQFVFP-UHFFFAOYSA-N,"2,3,3-trimethylpentane",2.822091799
,0.29187935,1.650502327,0,2,46,563.843,0.158036145,0.859570159,2.375797706,Cl_{3}P,InChI=1S/Cl3P/c1-4(2)3,FAIAAWCVCHQXDN-UHFFFAOYSA-N,trichlorophosphine,5.487093946
0.487700101,,2.013205293,41,0,46,506.06516,0.622813508,0.861126577,0.953470482,C_{5}H_{8},"InChI=1S/C5H8/c1-2-4-5-3-1/h1-2H,3-5H2",LPIQUOYDBNQMRZ-UHFFFAOYSA-N,cyclopentene,4.803719599
,,2.515999529,0,0,46,693,0.511231585,0.827209024,1.345429684,C_{9}H_{8},"InChI=1S/C9H8/c1-2-5-9-7-3-6-8(9)4-1/h1-6H,7H2",YBYIRNPNPLQARY-UHFFFAOYSA-N,1H-indene,3.981570623
,0.159377637,2.939516105,0,1,46,549.6,0.188298948,0.815006282,2.733942461,C_{8}H_{18}O,"InChI=1S/C8H18O/c1-7(2)6-9-8(3,4)5/h7H,6H2,1-5H3",UPOMCDPCTBJJDA-UHFFFAOYSA-N,isobutyl tert-butyl ether,2.391974514
,,3.105666587,0,0,46,576,0.290116118,0.590714335,1.64043325,C_{6}H_{14}O,"InChI=1S/C6H14O/c1-4-6(7)5(2)3/h5-7H,4H2,1-3H3",ISTJMQSHILQAEC-UHFFFAOYSA-N,2-methyl-3-pentanol,3.460072099
,,3.185417999,0,0,46,682,1.934381616,0.993982332,0.386559012,C_{11}H_{16},"InChI=1S/C11H16/c1-4-11(2,3)10-8-6-5-7-9-10/h5-9H,4H2,1-3H3",QHTJSSMHBLGUHV-UHFFFAOYSA-N,"(1,1-dimethylpropyl)benzene",2.736738733
,,3.291654285,0,0,46,617.35926,0.140636441,0.79023711,3.715473656,C_{10}H_{30}O_{5}Si_{5},"InChI=1S/C10H30O5Si5/c1-16(2)11-17(3,4)13-19(7,8)15-20(9,10)14-18(5,6)12-16/h1-10H3",XMSXQFUHVRWGNA-UHFFFAOYSA-N,decamethylcyclopentasiloxane,1.035286293
,,4.618969969,0,0,46,38.334,0.199148773,0.999963265,1.00004756,^{2}H_{2},InChI=1S/H2/h1H/i1+1D,UFHFLCQGNIYNRP-VVKOMZTBSA-N,deuterium,1.863393848
0.168956576,1.476680753,4.991401434,11,3,46,530.930097,1.40818495,0.960483345,0.596976887,C_{6}HF_{5},InChI=1S/C6HF5/c7-2-1-3(8)5(10)6(11)4(2)9/h1H,WACNXHCZHTVBJM-UHFFFAOYSA-N,pentafluorobenzene,3.535183563
,5.771576209,11.39961904,0,1,46,529,0.634662901,0.921569558,1.68858497,C_{4}H_{8}O_{2},"InChI=1S/C4H8O2/c1-4-5-2-3-6-4/h4H,2-3H2,1H3",HTWIZMNMTWYQRN-UHFFFAOYSA-N,"2-methyl-1,3-dioxolane",5.767840342
,,17.22195168,0,0,46,872.9,0.611818011,0.796212392,3.177834632,C_{34}H_{70},"InChI=1S/C34H70/c1-3-5-7-9-11-13-15-17-19-21-23-25-27-29-31-33-34-32-30-28-26-24-22-20-18-16-14-12-10-8-6-4-2/h3-34H2,1-2H3",GWVDBZWVFGFBCN-UHFFFAOYSA-N,tetratriacontane,0.614704416
,,18.59585187,0,0,46,657.901056,0.539636604,0.92374718,1.668510905,C_{10}H_{14},"InChI=1S/C10H14/c1-3-9-5-7-10(4-2)8-6-9/h5-8H,3-4H2,1-2H3",DSNHSQKRULAAEI-UHFFFAOYSA-N,"1,4-diethylbenzene",2.803612174
,0.056067169,0.310108092,0,2,45,576.544336,0.274463175,0.835683583,2.096289148,C_{8}H_{18},"InChI=1S/C8H18/c1-5-8(4,6-2)7-3/h5-7H2,1-4H3",GIEZWIDCIFCQPS-UHFFFAOYSA-N,3-ethyl-3-methylpentane,2.805828578
,,0.877596116,0,0,45,679.8,1.287767297,0.990774012,0.932206475,C_{7}H_{16}O_{3},"InChI=1S/C7H16O3/c1-2-4-9-6-7-10-5-3-8/h8H,2-7H2,1H3",DJCYDDALXPHSHR-UHFFFAOYSA-N,2-(2-propoxyethoxy)ethanol,3.000086219
,,1.018617176,0,0,45,712,1.001266518,0.924593931,0.872380883,C_{6}H_{3}Cl_{3},InChI=1S/C6H3Cl3/c7-4-1-5(8)3-6(9)2-4/h1-3H,XKEFYDZQGKAQCN-UHFFFAOYSA-N,"1,3,5-trichlorobenzene",3.435753953
,,1.168380861,0,0,45,592,1.044586821,0.999588299,0.699547755,C_{4}H_{6}O,InChI=1S/C4H6O/c5-4-2-1-3-4/h1-3H2,SHQSVMDWKBRBGB-UHFFFAOYSA-N,cyclobutanone,5.671330653
0.125381812,,1.452010713,53,0,45,550.791,0.699983721,0.826645294,1.106058939,C_{6}H_{2}F_{4},InChI=1S/C6H2F4/c7-3-1-2-4(8)6(10)5(3)9/h1-2H,SOZFIIXUNAKEJP-UHFFFAOYSA-N,"1,2,3,4-tetrafluorobenzene",3.791005852
0.445011499,0.337584151,2.555106264,30,1,45,585.6,0.608860083,0.800514946,1.12341732,C_{6}H_{14}S,"InChI=1S/C6H14S/c1-5(2)7-6(3)4/h5-6H,1-4H3",XYWDPYKBIRQXQS-UHFFFAOYSA-N,"2,4-dimethyl-3-thiapentane",3.199952398
,,2.624964385,0,0,45,727,0.584368478,0.889662766,2.014580746,C_{6}H_{8}N_{2},"InChI=1S/C6H8N2/c1-5-3-2-4-8-6(5)7/h2-4H,1H3,(H2,7,8)",RGDQRXPEZUNWHX-UHFFFAOYSA-N,2-amino-3-methylpyridine,5.635038858
0.430489134,0.511345419,2.888075891,37,3,45,536.6,1.070516376,0.907683138,0.617061423,C_{3}H_{8}S,"InChI=1S/C3H8S/c1-2-3-4/h4H,2-3H2,1H3",SUVIGLJNEAMWEG-UHFFFAOYSA-N,1-propanethiol,4.611496888
0.14790006,,3.291573351,44,0,45,876,1.083900199,0.851049352,0.754494361,C_{14}H_{12},"InChI=1S/C14H12/c1-3-7-13-11(5-1)9-10-12-6-2-4-8-14(12)13/h1-8H,9-10H2",XXPBFNVKTVJZKF-UHFFFAOYSA-N,"9,10-dihydrophenanthrene",3.354310953
0.092330748,2.301003735,4.864376034,24,1,45,637.3,0.739910738,0.802368221,1.315662664,C_{11}H_{22},"InChI=1S/C11H22/c1-3-5-7-9-11-10-8-6-4-2/h3H,1,4-11H2,2H3",DCTOHCCUXLBQMS-UHFFFAOYSA-N,1-undecene,1.995289312
,2.808605875,18.83306133,0,1,45,603,1.212576356,0.988839106,1.059385283,C_{6}H_{14}O,"InChI=1S/C6H14O/c1-3-6(2)4-5-7/h6-7H,3-5H2,1-2H3",IWTBVKIGCDZRPL-UHFFFAOYSA-N,3-methyl-1-pentanol,3.397965454
,,0.19348261,0,0,44,535.210525,1.101843946,0.999996503,0.778459331,C_{6}H_{2}F_{4},InChI=1S/C6H2F4/c7-3-1-4(8)6(10)5(9)2-3/h1-2H,UHHYOKRQTQBKSB-UHFFFAOYSA-N,"1,2,3,5-tetrafluorobenzene",3.746875411
,,0.552585418,0,0,44,420.25,1.05858477,0.994710397,0.821610162,C_{2}H_{2}F_{4}O,InChI=1S/C2H2F4O/c3-1(4)7-2(5)6/h1-2H,IOCGMLSHRBHNCM-UHFFFAOYSA-N,bis(difluoromethyl) ether,4.152025991
,,0.643520888,0,0,44,144.008765,0.289773679,0.906167281,1.342161284,F_{2},InChI=1S/F2/c1-2,PXGOKWXKJXAPGV-UHFFFAOYSA-N,fluorine,5.215833362
0.009488892,0.171440287,0.891915609,1,1,44,541.2,0.191966526,0.8327867,2.849653474,C_{6}H_{12}O_{2},"InChI=1S/C6H12O2/c1-5(7)8-6(2,3)4/h1-4H3",WMOVHXAZOJBABW-UHFFFAOYSA-N,"1,1-dimethylethyl ethanoate",3.03880665
,,1.073159945,0,0,44,614.5,0.362965758,0.836520378,2.422367889,C_{8}H_{14}O_{2},"InChI=1S/C8H14O2/c1-4-5-6-10-8(9)7(2)3/h2,4-6H2,1,3H3",SOGAXMICEFXMKE-UHFFFAOYSA-N,butyl 2-methyl-2-propenoate,2.730337165
0.187665933,,1.281995104,14,0,44,558,1.224880279,0.972106407,0.535204894,C_{6}H_{8},"InChI=1S/C6H8/c1-2-4-6-5-3-1/h1-4H,5-6H2",MGNZXYYWBUKAII-UHFFFAOYSA-N,"1,3-cyclohexadiene",4.60409156
,0.066424768,1.687595659,0,1,44,823,0.255712003,0.827183494,2.959609131,C_{16}H_{18},"InChI=1S/C16H18/c1-16(2,3)15-11-9-14(10-12-15)13-7-5-4-6-8-13/h4-12H,1-3H3",CDOYZTOFTGTGBC-UHFFFAOYSA-N,"4-(1,1-dimethylethyl)-1,1'-biphenyl",2.740849061
,,1.712887805,0,0,44,717,1.615291687,0.999881993,0.742731339,C_{13}H_{26}O,"InChI=1S/C13H26O/c1-3-4-5-6-7-8-9-10-11-12-13(2)14/h3-12H2,1-2H3",CYIFVRUOHKNECG-UHFFFAOYSA-N,2-tridecanone,1.735753939
,,1.739804759,0,0,44,658,0.163339911,0.83522739,2.783895767,C_{7}H_{12}O,"InChI=1S/C7H12O/c1-6-4-2-3-5-7(6)8/h6H,2-5H2,1H3",LFSAPCRASZRSKS-UHFFFAOYSA-N,2-methylcyclohexanone,3.658325909
0.445654056,0.504381458,2.094699162,39,4,44,683.7709915,0.430007982,0.819494501,1.575131872,C_{7}H_{9}N,"InChI=1S/C7H9N/c1-6-3-4-8-5-7(6)2/h3-5H,1-2H3",NURQLCJSMXZBPC-UHFFFAOYSA-N,"3,4-dimethylpyridine",4.066434255
0.671079679,,2.232718051,39,0,44,635,1.299397486,0.999992426,0.539844497,C_{3}H_{3}NS,InChI=1S/C3H3NS/c1-2-5-3-4-1/h1-3H,FZWLAAWBMGSTSO-UHFFFAOYSA-N,"1,3-thiazole",6.962619303
,0.059544337,2.946333506,0,1,44,674.35168,0.329241096,0.840198907,2.614978244,C_{8}H_{15}N,"InChI=1S/C8H15N/c1-2-3-4-5-6-7-8-9/h2-7H2,1H3",YSIMAPNUZAVQER-UHFFFAOYSA-N,octanenitrile,2.849948449
,,4.258177368,0,0,44,687,2.225991176,0.961732173,0.369732567,C_{12}H_{18},"InChI=1S/C12H18/c1-9(2)11-7-5-6-8-12(11)10(3)4/h5-10H,1-4H3",OKIRBHVFJGXOIS-UHFFFAOYSA-N,"1,2-diisopropylbenzene",2.33917367
,,4.880717278,0,0,44,881,0.79540094,0.886223333,2.053966181,C_{7}H_{6}N_{2}O_{3},"InChI=1S/C7H6N2O3/c8-7(10)5-1-3-6(4-2-5)9(11)12/h1-4H,(H2,8,10)",ZESWUEBPRPGMTP-UHFFFAOYSA-N,p-nitrobenzamide,3.816587555
,,5.536353883,0,0,44,690,0.665101564,0.953481433,1.31208556,C_{10}H_{18},"InChI=1S/C10H18/c1-2-6-9(5-1)10-7-3-4-8-10/h9-10H,1-8H2",MAWOHFOSAIXURX-UHFFFAOYSA-N,"1,1'-bicyclopentyl",3.234839167
0.498577173,0.547868594,5.847991591,64,3,44,648,1.238400937,0.899394747,0.745358697,C_{8}H_{14}O_{2},"InChI=1S/C8H14O2/c1-7(9)10-8-5-3-2-4-6-8/h8H,2-6H2,1H3",YYLLIJHXUHJATK-UHFFFAOYSA-N,cyclohexyl ethanoate,3.161899096
0.657118036,,6.023249695,2,0,44,605.96,0.422956427,0.719704447,1.568657141,C_{4}H_{6}O_{3},InChI=1S/C4H6O3/c1-3(5)7-4(2)6/h1-2H3,WFDIJRYMOXRFFG-UHFFFAOYSA-N,ethanoic anhydride,4.000242827
,,6.600858058,0,0,44,377.92,0.442216215,0.92358131,1.670143188,C_{2}H_{3}F_{3}O,"InChI=1S/C2H3F3O/c1-6-2(3,4)5/h1H3",JRHMNRMPVRXNOS-UHFFFAOYSA-N,trifluoromethoxymethane,3.641934797
,0.909369881,11.43776434,0,1,44,581,0.712903378,0.906043374,1.838524566,C_{7}H_{16}O_{3},"InChI=1S/C7H16O3/c1-4-8-7(9-5-2)10-6-3/h7H,4-6H2,1-3H3",GKASDNZWUGIAMG-UHFFFAOYSA-N,ethyl orthomethanoate,3.533131571
,,12.86812499,0,0,44,575.6,1.161619379,0.999649333,0.887679799,C_{6}H_{14}O,"InChI=1S/C6H14O/c1-4-6(3,7)5-2/h7H,4-5H2,1-3H3",FRDAATYAJDYRNW-UHFFFAOYSA-N,3-methyl-3-pentanol,3.652070426
,0.064728042,0.386209699,0,2,43,568.813126,0.237898685,0.833438327,2.408210521,C_{8}H_{18},"InChI=1S/C8H18/c1-5-7(3)8(4)6-2/h7-8H,5-6H2,1-4H3",RNTWWGNZUXGTAX-UHFFFAOYSA-N,"3,4-dimethylhexane",2.692729889