AAD_Csat,AAD_hfg,AAD_psat,N_Csat,N_hfg,N_psat,Tc_K,c0,c1,c2,formula,inchi,inchikey,name,pc_MPa
,,1.090343595,0,0,13,795,1.206244259,0.946205363,1.382964544,C_{23}H_{46},"InChI=1S/C23H46/c1-3-5-7-9-11-14-18-22(23-20-16-13-17-21-23)19-15-12-10-8-6-4-2/h22-23H,3-21H2,1-2H3",QQUZVPOZCFYGDY-UHFFFAOYSA-N,(1-octylnonyl)cyclohexane,1.013528563
0.283146942,0.415694286,1.146380062,4,1,13,397.1282,0.214426037,0.838912629,2.381999679,C_{2}N_{2},InChI=1S/C2N2/c3-1-2-4,JMANVNJQNLATNU-UHFFFAOYSA-N,ethanedinitrile,5.820376865
,0.000278693,1.367336778,0,1,13,580.3,1.003131652,0.894756819,0.85095775,C_{9}H_{20},"InChI=1S/C9H20/c1-7(2)6-9(5)8(3)4/h7-9H,6H2,1-5H3",ODGLTLJZCVNPBU-UHFFFAOYSA-N,"2,3,5-trimethylhexane",2.431638531
,0.016133138,1.37182157,0,2,13,656,0.379510077,0.834477385,2.817716005,C_{10}H_{20}O_{2},"InChI=1S/C10H20O2/c1-3-4-5-6-7-8-9-10(11)12-2/h3-9H2,1-2H3",IJXHLVMUNBOGRR-UHFFFAOYSA-N,methyl nonanoate,2.218189939
,,1.38210109,0,0,13,690,0,0.372040177,0.969540112,C_{6}H_{14}S_{2},"InChI=1S/C6H14S2/c1-4-5-7-8-6(2)3/h6H,4-5H2,1-3H3",YCBVTHJPQCNICU-UHFFFAOYSA-N,1-(isopropyldithio)propane,2.741228732
,,1.517144592,0,0,13,753,8.92888E-06,0.254088349,0.781377077,C_{2}H_{3}FN_{2}O_{5},"InChI=1S/C2H3FN2O5/c3-2(1-6,4(7)8)5(9)10/h6H,1H2",DKSPPEUUPARRFY-UHFFFAOYSA-N,"2,2-dinitro-2-fluoroethanol",5.739210285
,,1.529743021,0,0,13,656,1.540080014,0.999618287,0.752778973,C_{11}H_{22}O_{2},"InChI=1S/C11H22O2/c1-4-5-6-7-8-9-11(12)13-10(2)3/h10H,4-9H2,1-3H3",WCGIIHOFOFCKSM-UHFFFAOYSA-N,1-methylethyl octanoate,1.890301683
,,1.57955556,0,0,13,650,0.474643781,0.850793739,2.075539361,C_{12}H_{26}O,"InChI=1S/C12H26O/c1-7-8-9-13-12(5,6)10-11(2,3)4/h7-10H2,1-6H3",JVLYCQPURZKIPY-UHFFFAOYSA-N,"butyl 1,1,3,3-tetramethylbutyl ether",1.883198421
,,1.607650526,0,0,13,631,0.245173235,0.772437904,4.221798783,C_{11}HF_{21}O_{2},"InChI=1S/C11HF21O2/c12-2(13,1(33)34)3(14,15)4(16,17)5(18,19)6(20,21)7(22,23)8(24,25)9(26,27)10(28,29)11(30,31)32/h(H,33,34)",SIDINRCMMRKXGQ-UHFFFAOYSA-N,perfluoroundecanoic acid,1.191685459
,,1.620208406,0,0,13,678,0.578067051,0.766034382,1.296375824,C_{5}H_{5}NO_{2},"InChI=1S/C5H5NO2/c1-4(3-6)5(7)8-2/h1H2,2H3",MWCLLHOVUTZFKS-UHFFFAOYSA-N,methyl-2-cyanoacrylate,3.58759781
,,1.791483668,0,0,13,678,1.056266953,0.999822898,0.893433791,C_{10}H_{12},"InChI=1S/C10H12/c1-3-9-6-5-7-10(4-2)8-9/h3,5-8H,1,4H2,2H3",XHUZSRRCICJJCN-UHFFFAOYSA-N,1-ethenyl-3-ethylbenzene,3.242729796
,0.04426502,1.825173085,0,1,13,550.9,0.561197608,0.789168887,1.244276737,C_{6}H_{12}O_{2},"InChI=1S/C6H12O2/c1-6(2,3)5(7)8-4/h1-4H3",CNMFHDIDIMZHKY-UHFFFAOYSA-N,"methyl 2,2-dimethylpropanoate",2.94351386
,,1.849516281,0,0,13,686,0.94194983,0.933823653,1.524267618,C_{13}H_{26}O_{2},"InChI=1S/C13H26O2/c1-4-5-6-7-8-9-10-11-13(14)15-12(2)3/h12H,4-11H2,1-3H3",PKPPDYGHKDIKBH-UHFFFAOYSA-N,"decanoic acid, 1-methylethyl ester",1.779863676
,,1.892309907,0,0,13,685,0.629884051,0.939135598,1.460111292,C_{6}H_{7}N,"InChI=1S/C6H7N/c7-4-6-2-1-5(6)3-6/h5H,1-3H2",WHGLFTRKCCWYES-UHFFFAOYSA-N,bicyclo[2.1.0]pentane-1-carbonitrile,5.115900503
,,2.138728558,0,0,13,579,0.750568175,0.400620384,0.775983459,C_{8}H_{18}O,"InChI=1S/C8H18O/c1-5-7-9-8(3,4)6-2/h5-7H2,1-4H3",LFKBOUUQIPXNTJ-UHFFFAOYSA-N,"1,1-dimethylpropyl propyl ether",2.533336082
,,2.150119316,0,0,13,706,1.383057015,0.885372508,0.571074571,C_{11}H_{16}O,"InChI=1S/C11H16O/c1-4-12-11(2,3)10-8-6-5-7-9-10/h5-9H,4H2,1-3H3",JNPNJMJXGPZCNE-UHFFFAOYSA-N,(1-ethoxy-1-methylethyl)benzene,2.638747366
,,2.168541591,0,0,13,665,0.644134617,0.917837753,1.723455241,C_{11}H_{16},"InChI=1S/C11H16/c1-4-10-6-9(3)7-11(5-2)8-10/h6-8H,4-5H2,1-3H3",HILAULICMJUOLK-UHFFFAOYSA-N,"1,3-diethyl-5-methylbenzene",2.832739548
,,2.19147038,0,0,13,577,1.311555868,0.941892799,0.889884552,C_{7}H_{16}O,"InChI=1S/C7H16O/c1-6(8)5-7(2,3)4/h6,8H,5H2,1-4H3",OIBKGNPMOMMSSI-UHFFFAOYSA-N,"4,4-dimethyl-2-pentanol",3.144937756
,,2.319768583,0,0,13,538.1,0.469274982,0.922860271,1.676789595,C_{6}H_{8},"InChI=1S/C6H8/c1-3-5-6-4-2/h3-6H,1-2H2",AFVDZBIIBXWASR-UHFFFAOYSA-N,"1,3,5-hexatriene",3.819522914
,0.227497405,2.399799427,0,16,13,696,0.398343851,0.830596577,2.891803956,C_{13}H_{24}O_{4},"InChI=1S/C13H24O4/c1-12(2,3)16-10(14)8-7-9-11(15)17-13(4,5)6/h7-9H2,1-6H3",FXJKNCDSABKERB-UHFFFAOYSA-N,di-tert-butyl glutarate,1.732743557
,,2.441269663,0,0,13,726,0.930875457,0.891443449,1.994411608,C_{6}H_{6}O_{3},"InChI=1S/C6H6O3/c7-3-5-1-2-6(4-8)9-5/h1-3,8H,4H2",NOEGNKMFWQHSLB-UHFFFAOYSA-N,5-(hydroxymethyl)furan-2-carbaldehyde,5.23581043
,,2.675968233,0,0,13,660,0.566393004,0.923348412,1.67240442,C_{7}H_{12}O_{2},"InChI=1S/C7H12O2/c1-2-3-7-4-5-8-6-9-7/h2-3,7H,4-6H2,1H3",NQDVXWSFXIVVAF-UHFFFAOYSA-N,"4-propenyl-1,3-dioxane",3.870049675
,,2.683743913,0,0,13,688,1.494537114,0.999713034,0.526352496,C_{5}H_{10}N_{2},"InChI=1S/C5H10N2/c1-3-7(4-2)5-6/h3-4H2,1-2H3",ZZTSQZQUWBFTAT-UHFFFAOYSA-N,diethylcyanamide,3.304708399
,,2.707009652,0,0,13,580.7,0.53428208,0.917457153,1.726798806,C_{9}H_{20},"InChI=1S/C9H20/c1-5-9(4)7-6-8(2)3/h8-9H,5-7H2,1-4H3",HQZHQNKZOYIKQC-UHFFFAOYSA-N,"3,6-dimethylheptane",2.35788943
,,2.720937616,0,0,13,629.7,1.05528184,0.949889502,1.036860756,C_{10}H_{22}O,"InChI=1S/C10H22O/c1-3-5-7-9-11-10-8-6-4-2/h3-10H2,1-2H3",AOPDRZXCEAKHHW-UHFFFAOYSA-N,dipentyl ether,2.032470268
,,2.816083806,0,0,13,655,0.753760257,0.955030698,1.295280125,C_{10}H_{14},"InChI=1S/C10H14/c1-3-5-10-7-4-6-9(2)8-10/h4,6-8H,3,5H2,1-2H3",QUEBYVKXYIKVSO-UHFFFAOYSA-N,1-methyl-3-propylbenzene,2.842181669
,,3.051262969,0,0,13,930,0,0.253506895,1.001327861,C_{8}H_{7}N_{3}O_{7},"InChI=1S/C8H7N3O7/c1-2-18-8-6(10(14)15)3-5(9(12)13)4-7(8)11(16)17/h3-4H,2H2,1H3",AOZXETLGPZAZNK-UHFFFAOYSA-N,"2,4,6-trinitrophenetole",2.630971763
,0.084649259,3.146653607,0,1,13,611.48683,1.306483332,0.998758101,0.736604503,C_{8}H_{16}O_{2},"InChI=1S/C8H16O2/c1-4-5-8(9)10-6-7(2)3/h7H,4-6H2,1-3H3",RGFNRWTWDWVHDD-UHFFFAOYSA-N,2-methylpropyl butanoate,2.671931826
,0.017237523,3.158627265,0,1,13,593,0.366759497,0.840808188,2.703079815,C_{5}H_{12}O_{2},"InChI=1S/C5H12O2/c1-5(2)7-4-3-6/h5-6H,3-4H2,1-2H3",HCGFUIQPSOCUHI-UHFFFAOYSA-N,2-isopropoxyethanol,3.963401034
,,3.345477736,0,0,13,724,1.889139006,0.960992224,0.651695569,C_{18}H_{38},"InChI=1S/C18H38/c1-5-11-17(12-6-2)15-9-10-16-18(13-7-3)14-8-4/h17-18H,5-16H2,1-4H3",SUVYZSWABJDNFR-UHFFFAOYSA-N,"4,9-dipropyldodecane",1.207682005
,0.501497572,3.362109646,0,13,13,694,1.908243153,0.6764943,0.393346009,C_{7}H_{6}Cl_{2},"InChI=1S/C7H6Cl2/c1-5-6(8)3-2-4-7(5)9/h2-4H,1H3",DMEDNTFWIHCBRK-UHFFFAOYSA-N,"1,3-dichloro-2-methylbenzene",4.253117153
,,3.45458446,0,0,13,790,1.329585145,0.992851409,0.721775668,C_{14}H_{16},"InChI=1S/C14H16/c1-14(2,3)13-10-6-8-11-7-4-5-9-12(11)13/h4-10H,1-3H3",SPLGZANLVHBDCC-UHFFFAOYSA-N,"1-(1,1-dimethylethyl)naphthalene",2.648872084
,0.107865081,3.598783355,0,3,13,612,0.184827307,0.833361931,2.834366649,C_{9}H_{18}O,"InChI=1S/C9H18O/c1-8(2,3)7(10)9(4,5)6/h1-6H3",UIQGEWJEWJMQSL-UHFFFAOYSA-N,"2,2,4,4-tetramethyl-3-pentanone",2.558164579
,,4.185122213,0,0,13,777,1.7348567,0.74589458,0.936471901,C_{15}H_{30}O_{2},"InChI=1S/C15H30O2/c1-2-3-4-5-6-7-8-9-10-11-12-13-14-15(16)17/h2-14H2,1H3,(H,16,17)",WQEPLUUGTLDZJY-UHFFFAOYSA-N,pentadecanoic acid,1.57019775
,0.042977003,4.939929232,0,2,13,709,0.246247446,0.804644186,3.477351016,C_{10}H_{20}Cl_{2},InChI=1S/C10H20Cl2/c11-9-7-5-3-1-2-4-6-8-10-12/h1-10H2,RBBNTRDPSVZESY-UHFFFAOYSA-N,"1,10-dichlorodecane",1.276325434
,,5.070897592,0,0,13,605,0.640155765,0.915954563,1.741269971,C_{8}H_{19}N,"InChI=1S/C8H19N/c1-4-5-6-9-7-8(2)3/h8-9H,4-7H2,1-3H3",CCRUHKGZAQXBKC-UHFFFAOYSA-N,"1-butanamine, N-(2-methylpropyl)-",3.736839092
1.213273465,3.05241653,5.36306168,56,1,13,420,0.364040091,0.840904016,1.70314989,CCl_{2}O,InChI=1S/CCl2O/c2-1(3)4,YGYAWVDWMABLBF-UHFFFAOYSA-N,phosgene,3.221142628
,,5.541070031,0,0,13,778,1.487346478,0.999523579,0.663125986,C_{14}H_{12},"InChI=1S/C14H12/c1-12(13-8-4-2-5-9-13)14-10-6-3-7-11-14/h2-11H,1H2",ZMYIIHDQURVDRB-UHFFFAOYSA-N,"1,1-diphenylethene",2.658523035
,,5.658213988,0,0,13,711,0.836712972,0.724644879,1.177810512,C_{9}H_{16}O_{4},"InChI=1S/C9H16O4/c1-12-8(10)6-4-3-5-7-9(11)13-2/h3-7H2,1-2H3",SHWINQXIGSEZAP-UHFFFAOYSA-N,"dimethyl 1,7-heptanedioate",2.377354064
,,6.231993748,0,0,13,801,1.144702403,0.508973718,0.889377103,C_{14}H_{12}O_{2},"InChI=1S/C14H12O2/c15-14(11-12-7-3-1-4-8-12)16-13-9-5-2-6-10-13/h1-10H,11H2",USVNNHYNCCJCCP-UHFFFAOYSA-N,phenyl phenylacetate,2.578880976
,,6.278501005,0,0,13,666,0.689590997,0.913326494,1.76635271,C_{7}H_{7}Br,"InChI=1S/C7H7Br/c8-6-7-4-2-1-3-5-7/h1-5H,6H2",AGEZXYOZHKGVCM-UHFFFAOYSA-N,(bromomethyl)benzene,3.97050865
,,6.49679099,0,0,13,665,0.558096242,0.908023671,1.817697532,C_{11}H_{16},"InChI=1S/C11H16/c1-10(2)8-9-11-6-4-3-5-7-11/h3-7,10H,8-9H2,1-2H3",XNXIYYFOYIUJIW-UHFFFAOYSA-N,(3-methylbutyl)benzene,2.695932006
,,6.565575438,0,0,13,582,0.456974679,0.923687479,1.669129927,C_{6}H_{10}O,"InChI=1S/C6H10O/c1-6-4-2-3-5-7-6/h2,4,6H,3,5H2,1H3",QGXRIEQVMZFYOR-UHFFFAOYSA-N,"5,6-dihydro-2-methyl-2H-pyran",4.397585016
,,7.448560792,0,0,13,644,1.403907686,0.968126333,0.919363739,C_{6}H_{12}O_{2},"InChI=1S/C6H12O2/c1-3-5(4-2)6(7)8/h5H,3-4H2,1-2H3,(H,7,8)",OXQGTIUCKGYOAA-UHFFFAOYSA-N,2-ethylbutanoic acid,3.16935509
,,8.906835905,0,0,13,702,0.371205037,0.839690135,2.713649708,C_{9}H_{10}O_{3},"InChI=1S/C9H10O3/c1-2-12-9(11)7-5-3-4-6-8(7)10/h3-6,10H,2H2,1H3",GYCKQBWUSACYIF-UHFFFAOYSA-N,ethyl 2-hydroxybenzoate,3.113713116
,,10.02052457,0,0,13,626.5,2.250197399,0.864451038,0.495622891,C_{8}H_{18}O,"InChI=1S/C8H18O/c1-3-5-6-7-8(9)4-2/h8-9H,3-7H2,1-2H3/t8-/m0/s1",NMRPBPVERJPACX-QMMMGPOBSA-N,3-(S)-octanol,2.807212034
,,10.46537485,0,0,13,678,1.129588142,0.80281016,1.103293451,C_{12}H_{20}O_{2},"InChI=1S/C12H20O2/c1-9-5-7-11(8-6-9)12(3,4)14-10(2)13/h5,11H,6-8H2,1-4H3",IGODOXYLBBXFDW-UHFFFAOYSA-N,"terpineol, acetate",2.25156109
,,10.97222002,0,0,13,731,0.69827525,0.858083364,2.342757014,C_{14}H_{26}O_{4},"InChI=1S/C14H26O4/c1-3-5-11-17-13(15)9-7-8-10-14(16)18-12-6-4-2/h3-12H2,1-2H3",XTJFFFGAUHQWII-UHFFFAOYSA-N,dibutyl hexanedioate,1.331997402
,,13.80637306,0,0,13,401,0,0.403519505,0.484732549,C_{2}H_{2}O,InChI=1S/C2H2O/c1-2-3/h1H2,CCGKOQOJPYTBIH-UHFFFAOYSA-N,ethenone,5.223064302
,,13.87256455,0,0,13,597,1.299083872,0.675881421,0.511289135,C_{7}H_{12},"InChI=1S/C7H12/c1-2-4-6-7-5-3-1/h1-2H,3-7H2",ZXIJMRYMVAMXQP-UHFFFAOYSA-N,cycloheptene,4.005225886
,,14.4536185,0,0,13,523.97124,1.992421282,0.999365277,0.564843948,C_{9}F_{20},"InChI=1S/C9F20/c10-1(11,2(12,13)4(16,17)6(20,21)8(24,25)26)3(14,15)5(18,19)7(22,23)9(27,28)29",UVWPNDVAQBNQBG-UHFFFAOYSA-N,eicosafluorononane,1.558419817
,,14.76959924,0,0,13,672,0.338153911,0.838181193,2.747282176,C_{5}H_{12}O_{3},"InChI=1S/C5H12O3/c1-7-4-5-8-3-2-6/h6H,2-5H2,1H3",SBASXUCJHJRPEV-UHFFFAOYSA-N,2-(2-methoxyethoxy)ethanol,3.671968527
,,16.39039553,0,0,13,776,1.216437195,0.999832838,0.919871708,C_{14}H_{14},"InChI=1S/C14H14/c1-12-7-9-14(10-8-12)11-13-5-3-2-4-6-13/h2-10H,11H2,1H3",SIYISNUJKMAQBV-UHFFFAOYSA-N,(4-methylphenyl)phenylmethane,2.757034915
,,16.79801533,0,0,13,663,1.557232061,0.999426721,0.788176456,C_{3}H_{6}N_{2}O_{4},"InChI=1S/C3H6N2O4/c1-2-3(4(6)7)5(8)9/h3H,2H2,1H3",DFHLCCWFLMSKJI-UHFFFAOYSA-N,"1,1-dinitropropane",4.602619074
,,18.79211779,0,0,13,865,0.00090423,0.198324694,0.823840571,C_{6}H_{4}N_{2}O_{4},InChI=1S/C6H4N2O4/c9-7(10)5-2-1-3-6(4-5)8(11)12/h1-4H,WDCYWAQPCXBPJA-UHFFFAOYSA-N,"1,3-dinitrobenzene",3.487021073
,,21.21049515,0,0,13,776,0.323137182,0.742979224,1.98915085,C_{13}H_{14},"InChI=1S/C13H14/c1-2-5-11-8-9-12-6-3-4-7-13(12)10-11/h3-4,6-10H,2,5H2,1H3",LQBNOHAXLHRIQW-UHFFFAOYSA-N,2-propylnaphthalene,2.826348798
,,40.74205928,0,0,13,875,0.073755283,0.000129133,0.668198364,C_{8}H_{10}O_{3}S,"InChI=1S/C8H10O3S/c1-7-3-5-8(6-4-7)12(9,10)11-2/h3-6H,1-2H3",VUQUOGPMUUJORT-UHFFFAOYSA-N,methyl p-toluenesulfonate,2.9153818
,,300.9157532,0,0,13,658.9,0.798649387,0.696273987,2.36374E-06,C_{10}H_{16},"InChI=1S/C10H16/c1-8(2)10-6-4-5-9(3)7-10/h7,10H,1,4-6H2,2-3H3",UXZIDIYMFIBDKT-UHFFFAOYSA-N,"cyclohexene, 1-methyl-3-(1-methylethenyl)-",2.757428232
,,0.014526892,0,0,12,547,1.184673633,0.913994549,0.671400612,C_{3}H_{2}Cl_{3}F_{3},"InChI=1S/C3H2Cl3F3/c4-3(5,6)1(7)2(8)9/h1-2H",FNQVSKPUMAMGTM-UHFFFAOYSA-N,"1,1,1-trichloro-2,3,3-trifluoropropane",3.152481309
,,0.024051883,0,0,12,696,0.273082222,0.812139546,2.740052653,C_{9}H_{18}Cl_{2},"InChI=1S/C9H18Cl2/c1-2-3-4-5-6-7-8-9(10)11/h9H,2-8H2,1H3",FBTKIMWGAQACHU-UHFFFAOYSA-N,"1,1-dichlorononane",2.228422763
,,0.048110098,0,0,12,425.01,0.791192032,0.884238322,0.976454404,C_{2}H_{2}ClF_{3},"InChI=1S/C2H2ClF3/c3-1-2(4,5)6/h1H2",CYXIKYKBLDZZNW-UHFFFAOYSA-N,"1-chloro-2,2,2-trifluoroethane",4.014289229
,,0.057207233,0,0,12,507,0.612867931,0.940403243,1.445428626,C_{4}H_{2}Cl_{2}F_{6},"InChI=1S/C4H2Cl2F6/c5-1(3(7,8)9)2(6)4(10,11)12/h1-2H/t1-,2-/m0/s1",DRNMSWBRUAIIJO-LWMBPPNESA-N,"(R*,R*)-2,3-dichloro-1,1,1,4,4,4-hexafluorobutane",2.580083854
,,0.0612382,0,0,12,708,0.198269451,0.836739085,2.775756362,C_{6}H_{12}Br_{2},"InChI=1S/C6H12Br2/c1-2-3-4-6(8)5-7/h6H,2-5H2,1H3",NUUUANNAZVEWHM-UHFFFAOYSA-N,"1,2-dibromohexane",3.150062739
,,0.125466562,0,0,12,519.99486,1.094623662,0.969732488,0.847341574,C_{4}H_{2}Cl_{2}F_{6},"InChI=1S/C4H2Cl2F6/c5-3(9,10)1(7)2(8)4(6,11)12/h1-2H/t1-,2-/m1/s1",CRWVIHDUBRTGIP-JCYAYHJZSA-N,"(+-)-1,4-dichloro-1,1,2,3,4,4-hexafluorobutane",2.770308194
,,0.128416855,0,0,12,449.0015446,0.758192791,0.85569775,1.155400345,C_{3}H_{5}F_{3}O,"InChI=1S/C3H5F3O/c1-7-2-3(4,5)6/h2H2,1H3",OHLVGBXMHDWRRX-UHFFFAOYSA-N,"1,1,1-trifluoro-2-methoxyethane",3.511510503
,,0.136840044,0,0,12,914,1.774404622,0.913323171,0.547989962,C_{14}H_{12}O,"InChI=1S/C14H12O/c15-9-14-12-7-3-1-5-10(12)11-6-2-4-8-13(11)14/h1-8,14-15H,9H2",XXSCONYSQQLHTH-UHFFFAOYSA-N,9-fluorenemethanol,4.162491133
,,0.141455454,0,0,12,676,1.861522146,0.997654377,0.468748754,C_{10}H_{14},"InChI=1S/C10H14/c1-4-10-7-5-6-8(2)9(10)3/h5-7H,4H2,1-3H3",QUBBAXISAHIDNM-UHFFFAOYSA-N,"1-ethyl-2,3-dimethylbenzene",2.929404665
,,0.169382058,0,0,12,518,1.297997044,0.899468873,0.631046953,C_{4}H_{2}Cl_{2}F_{6},"InChI=1S/C4H2Cl2F6/c5-1(3(7,8)9)2(6)4(10,11)12/h1-2H",DRNMSWBRUAIIJO-UHFFFAOYSA-N,"butane, 2,3-dichloro-1,1,1,4,4,4-hexafluoro-, meso-",2.486495687
,,0.176503773,0,0,12,657.4,1.069564381,0.999853796,0.847297784,C_{5}H_{12}S_{2},"InChI=1S/C5H12S2/c1-3-5-7-6-4-2/h3-5H2,1-2H3",SNGRPWPVGSSZGV-UHFFFAOYSA-N,"3,4-dithiaheptane",3.378985564
,,0.229014676,0,0,12,553.361,0.195846753,0.811839022,3.22265911,C_{7}H_{22}O_{2}Si_{3},"InChI=1S/C7H22O2Si3/c1-10(8-11(2,3)4)9-12(5,6)7/h10H,1-7H3",QNWOFLWXQGHSRH-UHFFFAOYSA-N,"1,1,1,3,5,5,5-heptamethyltrisiloxane",1.480741165
,,0.25715337,0,0,12,724,0.714343242,0.853966798,1.85158774,C_{14}H_{26}O,"InChI=1S/C14H26O/c1-3-5-7-8-10-12-14(13-15)11-9-6-4-2/h12-13H,3-11H2,1-2H3",VIKQYIINCNAGJW-UHFFFAOYSA-N,"2-nonenal, 2-pentyl-",1.67451992
,,0.269615127,0,0,12,700,0.798545733,0.848253068,1.518293344,C_{14}H_{26}O,"InChI=1S/C14H26O/c1-10(2)12(5)7-8-14(9-15)13(6)11(3)4/h8-13H,7H2,1-6H3",XSNDAQSPRFJMEY-UHFFFAOYSA-N,"2-(1,2-dimethylpropyl)-5,6-dimethyl-2-heptenal",1.471678197
,,0.282880727,0,0,12,622.55874,0.269743777,0.809316314,3.360136853,C_{12}H_{36}O_{4}Si_{5},"InChI=1S/C12H36O4Si5/c1-17(2,3)13-21(14-18(4,5)6,15-19(7,8)9)16-20(10,11)12/h1-12H3",VNRWTCZXQWOWIG-UHFFFAOYSA-N,tetrakis(trimethylsilyl) silicate,1.022677821
,,0.309772688,0,0,12,572,1.426616284,0.999928842,0.905270052,C_{4}H_{11}NO,"InChI=1S/C4H11NO/c1-3-5(6)4-2/h6H,3-4H2,1-2H3",FVCOIAYSJZGECG-UHFFFAOYSA-N,"N,N-diethylhydroxylamine",4.331346572
,,0.311454757,0,0,12,475.54,0.343962876,0.718800293,1.752395974,C_{5}H_{5}F_{5}O,"InChI=1S/C5H5F5O/c1-2-3(11)4(6,7)5(8,9)10/h2H2,1H3",GODCHPKYUKOQKA-UHFFFAOYSA-N,"1,1,1,2,2-pentafluoropentan-3-one",2.641902158
,,0.323469543,0,0,12,702,1.013613231,0.605632833,0.780497067,C_{6}H_{5}FO,"InChI=1S/C6H5FO/c7-5-1-3-6(8)4-2-5/h1-4,8H",RHMPLDJJXGPMEX-UHFFFAOYSA-N,4-fluorophenol,5.210787377
,,0.346650101,0,0,12,660.06,1.367435094,0.86304853,0.563595902,C_{4}H_{10}N_{2},"InChI=1S/C4H10N2/c1-2-6-4-3-5-1/h5-6H,1-4H2",GLUUGHFHXGJENI-UHFFFAOYSA-N,piperazine,5.459210045
,,0.369619517,0,0,12,533,6.28474E-06,0.19285616,0.903767128,C_{4}H_{2}Cl_{2}F_{6},"InChI=1S/C4H2Cl2F6/c5-3(9,10)1(7)2(8)4(6,11)12/h1-2H",CRWVIHDUBRTGIP-UHFFFAOYSA-N,"butane, 1,4-dichloro-1,1,2,3,4,4-hexafluoro-, meso-",2.408715314
,,0.378908544,0,0,12,700,0.242825532,0.825586958,2.901483833,C_{8}H_{10}O_{2},"InChI=1S/C8H10O2/c1-9-7-3-5-8(10-2)6-4-7/h3-6H,1-2H3",OHBQPCCCRFSCAX-UHFFFAOYSA-N,"1,4-dimethoxybenzene",3.453102166
,,0.557527133,0,0,12,622.7,1.127618923,0.941416539,0.841097839,C_{9}H_{16},"InChI=1S/C9H16/c1-3-5-7-9-8-6-4-2/h3-5,7,9H2,1-2H3",SRRDSRCWRHKEKU-UHFFFAOYSA-N,3-nonyne,3.134761184
,,0.573106429,0,0,12,929,1.708381879,0.946543445,1.374307196,C_{45}H_{86}O_{6},"InChI=1S/C45H86O6/c1-4-7-10-13-16-18-20-21-22-23-25-27-30-32-35-38-44(47)50-41-42(51-45(48)39-36-33-28-15-12-9-6-3)40-49-43(46)37-34-31-29-26-24-19-17-14-11-8-5-2/h42H,4-41H2,1-3H3",DPAYRQOQEIPOIO-UHFFFAOYSA-N,1-myristyl-2-capryl-3-stearin,0.30318959
,0.014887634,0.61914555,0,1,12,515,0.4191362,0.639262191,1.137929676,C_{3}H_{3}Cl_{2}F_{3},"InChI=1S/C3H3Cl2F3/c4-2(5)1-3(6,7)8/h2H,1H2",PLTIOZOVDUUXDQ-UHFFFAOYSA-N,"1,1-dichloro-3,3,3-trifluoropropane",3.039134181
,,0.623063665,0,0,12,937,1.950508691,0.972041752,1.163911061,C_{47}H_{90}O_{6},"InChI=1S/C47H90O6/c1-4-7-10-13-16-18-20-22-23-25-27-29-32-34-37-40-46(49)52-43-44(53-47(50)41-38-35-30-15-12-9-6-3)42-51-45(48)39-36-33-31-28-26-24-21-19-17-14-11-8-5-2/h44H,4-43H2,1-3H3",IYELSVNFMQXAND-UHFFFAOYSA-N,1-palmityl-2-capryl-3-stearin,0.281260724
0.967911444,0.273699685,0.628639404,14,5,12,560,0.237970083,0.825023459,1.986169207,C_{2}Cl_{4}F_{2},"InChI=1S/C2Cl4F2/c3-1(4,7)2(5,6)8",UGCSPKPEHQEOSR-UHFFFAOYSA-N,"1,1,2,2-tetrachloro-1,2-difluoroethane",3.665076055
,,0.654031624,0,0,12,737,0.410137472,0.867682003,1.843714431,C_{7}H_{7}I,"InChI=1S/C7H7I/c1-6-4-2-3-5-7(6)8/h2-5H,1H3",RINOYHWVBUKAQE-UHFFFAOYSA-N,1-iodo-2-methylbenzene,4.343260901
,,0.719617077,0,0,12,858,1.332537677,0.942120311,0.705460629,C_{13}H_{12}S,"InChI=1S/C13H12S/c1-3-7-12(8-4-1)11-14-13-9-5-2-6-10-13/h1-10H,11H2",LKMCJXXOBRCATQ-UHFFFAOYSA-N,(phenylthiomethyl)benzene,3.367254925
,,0.724433395,0,0,12,905,1.021097823,0.857358997,2.435486847,C_{39}H_{74}O_{6},"InChI=1S/C39H74O6/c1-4-7-10-13-16-18-19-21-23-26-29-32-38(41)44-35-36(34-43-37(40)31-28-25-22-15-12-9-6-3)45-39(42)33-30-27-24-20-17-14-11-8-5-2/h36H,4-35H2,1-3H3",IGFLMGKVDGKBEZ-UHFFFAOYSA-N,1-capryl-2-lauryl-3-myristin,0.424297293
,,0.740232073,0,0,12,718,1.938000326,0.908849706,0.416965747,C_{12}H_{18}O,"InChI=1S/C12H18O/c1-4-10-13-12(2,3)11-8-6-5-7-9-11/h5-9H,4,10H2,1-3H3",PLWOFDYJSDGEAT-UHFFFAOYSA-N,(1-methyl-1-propoxyethyl)benzene,2.528237217
,,0.849466546,0,0,12,629,2.121502364,0.998827924,0.428323053,C_{9}H_{18}O_{2},"InChI=1S/C9H18O2/c1-4-5-6-7-9(10)11-8(2)3/h8H,4-7H2,1-3H3",JSHDAORXSNJOBA-UHFFFAOYSA-N,1-methylethyl hexanoate,2.234334311
0.014195069,,0.893125036,2,0,12,705,0.47582898,0.810651609,2.383108145,C_{15}H_{30},"InChI=1S/C15H30/c1-3-5-7-9-11-13-15-14-12-10-8-6-4-2/h3H,1,4-15H2,2H3",PJLHTVIBELQURV-UHFFFAOYSA-N,1-pentadecene,1.54094375
,,0.923980295,0,0,12,667,0.614141885,0.878559502,1.35265459,C_{8}H_{9}Cl,"InChI=1S/C8H9Cl/c1-2-7-5-3-4-6-8(7)9/h3-6H,2H2,1H3",CVGAWKYSRYXQOI-UHFFFAOYSA-N,1-chloro-2-ethylbenzene,3.348683003
,,0.932577617,0,0,12,830,1.791493626,0.998774528,0.946509912,C_{26}H_{38},"InChI=1S/C26H38/c1-2-3-4-5-6-7-8-9-10-11-18-23-26(24-19-14-12-15-20-24)25-21-16-13-17-22-25/h12-17,19-22,26H,2-11,18,23H2,1H3",RHISRDQWNQEBBY-UHFFFAOYSA-N,"1,1-diphenyltetradecane",0.898050375
,0.128110559,1.001736298,0,5,12,485,0.174868349,0.849499618,2.557270053,C_{2}Cl_{3}F_{3},"InChI=1S/C2Cl3F3/c3-1(4,5)2(6,7)8",BOSAWIQFTJIYIS-UHFFFAOYSA-N,"1,1,1-trichloro-2,2,2-trifluoroethane",3.493990766
,,1.073247223,0,0,12,813,1.417478234,0.97417365,0.506032779,C_{6}H_{4}BrI,InChI=1S/C6H4BrI/c7-5-2-1-3-6(8)4-5/h1-4H,CTPUUDQIXKUAMO-UHFFFAOYSA-N,1-bromo-3-iodobenzene,4.661862826
,,1.100342506,0,0,12,723,0.894301273,0.972022329,1.164984366,C_{8}H_{9}Br,"InChI=1S/C8H9Br/c9-7-6-8-4-2-1-3-5-8/h1-5H,6-7H2",WMPPDTMATNBGJN-UHFFFAOYSA-N,(2-bromoethyl)benzene,4.268711708