AAD_Csat,AAD_hfg,AAD_psat,N_Csat,N_hfg,N_psat,Tc_K,c0,c1,c2,formula,inchi,inchikey,name,pc_MPa
,0.0470875,6.657710161,0,1,22,643,0.598480715,0.828859301,1.546386709,C_{8}H_{17}Cl,"InChI=1S/C8H17Cl/c1-2-3-4-5-6-7-8-9/h2-8H2,1H3",CNDHHGUSRIZDSL-UHFFFAOYSA-N,1-chlorooctane,2.58520803
,,7.617337937,0,0,22,604,0.634544659,0.650422236,1.216891351,C_{8}H_{18}O,"InChI=1S/C8H18O/c1-6(2)7(9)8(3,4)5/h6-7,9H,1-5H3",AXINNNJHLJWMTC-UHFFFAOYSA-N,"2,2,4-trimethyl-3-pentanol",2.872028414
,,7.750138818,0,0,22,631,0,0.112617388,1.305414327,C_{6}H_{12}O_{3},"InChI=1S/C6H12O3/c1-2-8-5-6-9-4-3-7/h2,7H,1,3-6H2",WULAHPYSGCVQHM-UHFFFAOYSA-N,2-[2-(ethenyloxy)ethoxy]ethanol,3.484762527
,,8.109945768,0,0,22,695,0.689189818,0.914130436,1.758682331,C_{12}H_{18}O,"InChI=1S/C12H18O/c1-2-3-7-10-13-11-12-8-5-4-6-9-12/h4-6,8-9H,2-3,7,10-11H2,1H3",RSDLTJVQMXAXCA-UHFFFAOYSA-N,pentyl benzyl ether,2.602527938
,,8.98534518,0,0,22,842.2,1.842934334,0.997450076,0.974483878,C_{29}H_{60},"InChI=1S/C29H60/c1-3-5-7-9-11-13-15-17-19-21-23-25-27-29-28-26-24-22-20-18-16-14-12-10-8-6-4-2/h3-29H2,1-2H3",IGGUPRCHHJZPBS-UHFFFAOYSA-N,nonacosane,0.729177097
,,10.36632108,0,0,22,683.24934,1.296402201,0.627339055,1.068754696,C_{14}H_{42}O_{7}Si_{7},"InChI=1S/C14H42O7Si7/c1-22(2)15-23(3,4)17-25(7,8)19-27(11,12)21-28(13,14)20-26(9,10)18-24(5,6)16-22/h1-14H3",GSANOGQCVHBHIF-UHFFFAOYSA-N,tetradecamethylcycloheptasiloxane,1.043384427
,1.307428635,12.31016743,0,2,22,777,1.625224181,0.999892686,0.971013122,C_{20}H_{40}O_{2},"InChI=1S/C20H40O2/c1-3-5-6-7-8-9-10-11-12-13-14-15-16-17-18-19-20(21)22-4-2/h3-19H2,1-2H3",MVLVMROFTAUDAG-UHFFFAOYSA-N,ethyl octadecanoate,1.04974261
,2.512902984,14.99951332,0,2,22,566,0.69620625,0.893634491,1.969906869,C_{2}H_{5}ClO,"InChI=1S/C2H5ClO/c3-1-2-4/h4H,1-2H2",SZIFAVKTNFCBPC-UHFFFAOYSA-N,1-chloro-2-hydroxyethane,5.251355585
,,18.7940334,0,0,22,568,0.681494675,0.902604586,1.873369454,C_{3}H_{4}O,"InChI=1S/C3H4O/c1-2-3-4/h1,4H,3H2",TVDSBUOJIPERQY-UHFFFAOYSA-N,2-propyn-1-ol,8.149908975
,0.026892838,18.97671703,0,1,22,789,1.505943539,0.986099839,1.074677468,C_{24}H_{51}N,"InChI=1S/C24H51N/c1-4-7-10-13-16-19-22-25(23-20-17-14-11-8-5-2)24-21-18-15-12-9-6-3/h4-24H2,1-3H3",XTAZYLNFDRKIHJ-UHFFFAOYSA-N,trioctylamine,0.864240923
,,22.11905277,0,0,22,732,1.464598752,0.996848696,0.97534494,C_{13}H_{28}O,"InChI=1S/C13H28O/c1-2-3-4-5-6-7-8-9-10-11-12-13-14/h14H,2-13H2,1H3",XFRVVPUIAFSTFO-UHFFFAOYSA-N,1-tridecanol,1.789787162
,,0.024454899,0,0,21,591.1,0.201401455,0.832329619,2.402922038,C_{5}H_{12}S,"InChI=1S/C5H12S/c1-5(2)3-4-6/h5-6H,3-4H2,1-2H3",GIJGXNFNUUFEGH-UHFFFAOYSA-N,3-methyl-1-butanethiol,3.57330204
,,0.031007906,0,0,21,657,0.202143132,0.833027579,2.354787509,C_{6}H_{12}S,"InChI=1S/C6H12S/c1-7-6-4-2-3-5-6/h6H,2-5H2,1H3",OTQVGYMGQKHLMY-UHFFFAOYSA-N,cyclopentyl-1-thiaethane,4.002795236
,,0.035753766,0,0,21,743,0.222170606,0.832046453,2.350901766,C_{3}Cl_{6},"InChI=1S/C3Cl6/c4-1(2(5)6)3(7,8)9",VFDYKPARTDCDCU-UHFFFAOYSA-N,"1-propene, 1,1,2,3,3,3-hexachloro-",4.146862419
,,0.037427302,0,0,21,527,0.677293346,0.80099384,1.984300768,C_{4}HF_{7}O_{2},"InChI=1S/C4HF7O2/c5-2(6,1(12)13)3(7,8)4(9,10)11/h(H,12,13)",YPJUNDFVDDCYIH-UHFFFAOYSA-N,"butanoic acid, heptafluoro-",2.499885818
,,0.041493278,0,0,21,600.8,0.170339828,0.843259067,2.660707085,C_{6}H_{14}S,"InChI=1S/C6H14S/c1-4-5-6(2,3)7/h7H,4-5H2,1-3H3",ISUXQQTXICTKOV-UHFFFAOYSA-N,2-methyl-2-pentanethiol,3.448664415
,,0.05245911,0,0,21,640,0.193785424,0.832439585,2.856156497,C_{6}H_{12}Cl_{2},"InChI=1S/C6H12Cl2/c1-2-3-4-5-6(7)8/h6H,2-5H2,1H3",RQXXCWHCUOJQGR-UHFFFAOYSA-N,"1,1-dichlorohexane",3.043452192
,,0.184481816,0,0,21,651,1.122348802,0.99995272,0.73562609,C_{10}H_{18},"InChI=1S/C10H18/c1-7-4-5-8-6-9(7)10(8,2)3/h7-9H,4-6H2,1-3H3/t7-,8+,9+/m1/s1",XOKSLPVRUOBDEW-VGMNWLOBSA-N,"[1S-(1.alpha.,2.beta.,5.alpha.)]-2,6,6-trimethylbicyclo[3.1.1]heptane",2.981132052
,,0.226771103,0,0,21,695,0.841539166,0.871251284,1.131889044,C_{8}H_{7}FO,"InChI=1S/C8H7FO/c1-6(10)7-2-4-8(9)5-3-7/h2-5H,1H3",ZDPAWHACYDRYIW-UHFFFAOYSA-N,1-(4-fluorophenyl)ethanone,3.955212911
,,0.237271891,0,0,21,573.9,0.603911192,0.830921513,1.267215038,C_{9}H_{20},"InChI=1S/C9H20/c1-6-8(2)7-9(3,4)5/h8H,6-7H2,1-5H3",AFTPEBDOGXRMNQ-UHFFFAOYSA-N,"2,2,4-trimethylhexane",2.352912456
,,0.315461836,0,0,21,806,1.173813861,0.950371307,0.964661281,C_{8}H_{10}N_{2}O,"InChI=1S/C8H10N2O/c1-10(2)8(11)7-4-3-5-9-6-7/h3-6H,1-2H3",FJEVKYZLIRAAKE-UHFFFAOYSA-N,"N,N-dimethylnicotinamide",3.969594123
,,0.363650648,0,0,21,781,0.935579669,0.903103034,1.613518541,C_{8}H_{9}NO,"InChI=1S/C8H9NO/c1-9-8(10)7-5-3-2-4-6-7/h2-6H,1H3,(H,9,10)",NCCHARWOCKOHIH-UHFFFAOYSA-N,N-methylbenzamide,4.355059783
,,0.389888937,0,0,21,496.6,1.157263309,0.944636394,0.639295588,C_{6}H_{12},"InChI=1S/C6H12/c1-4-5-6(2)3/h4-6H,1-3H3/b5-4+",LGAQJENWWYGFSN-SNAWJCMRSA-N,(E)-4-methyl-2-pentene,3.075267188
,,0.408895106,0,0,21,668,1.342764171,0.466583883,0.681674221,C_{6}H_{9}N,"InChI=1S/C6H9N/c1-5-3-4-6(2)7-5/h3-4,7H,1-2H3",PAPNRQCYSFBWDI-UHFFFAOYSA-N,"2,5-dimethyl-1H-pyrrole",4.729254488
,,0.50693407,0,0,21,564,1.378236577,0.999968524,0.852149984,C_{2}H_{5}NO,"InChI=1S/C2H5NO/c1-2-3-4/h2,4H,1H3",FZENGILVLUJGJX-UHFFFAOYSA-N,acetaldoxime,4.992466658
,,0.559351525,0,0,21,709,1.374566751,0.999448161,0.980954914,C_{13}H_{20}O_{2},"InChI=1S/C13H20O2/c1-9(2)14-12-6-11(5)7-13(8-12)15-10(3)4/h6-10H,1-5H3",IHEARZCPQSZIPL-UHFFFAOYSA-N,"1-methyl-3,5-bis(propan-2-yloxy)benzene",1.971603062
,,0.565662661,0,0,21,496.3,1.139074145,0.88509122,0.621976704,C_{6}H_{12},"InChI=1S/C6H12/c1-4-5-6(2)3/h4-6H,1-3H3/b5-4-",LGAQJENWWYGFSN-PLNGDYQASA-N,(Z)-4-methyl-2-pentene,3.116086036
,0.257951383,0.647957776,0,4,21,596.7,0.17947874,0.846063939,2.613427144,C_{5}H_{12}S,"InChI=1S/C5H12S/c1-3-5(2)4-6/h5-6H,3-4H2,1-2H3",WGQKBCSACFQGQY-UHFFFAOYSA-N,"1-butanethiol, 2-methyl-",3.754145068
,,0.702236988,0,0,21,602,0.456919518,0.87316149,2.215287151,C_{6}H_{16}N_{2},"InChI=1S/C6H16N2/c1-3-8(4-2)6-5-7/h3-7H2,1-2H3",UDGSVBYJWHOHNN-UHFFFAOYSA-N,"N,N-diethylethane-1,2-diamine",3.879006078
,,0.722940511,0,0,21,694,0.361854817,0.858308228,2.421340604,C_{8}H_{7}N,"InChI=1S/C8H7N/c1-7-4-2-3-5-8(7)6-9/h2-5H,1H3",NWPNXBQSRGKSJB-UHFFFAOYSA-N,2-methylbenzonitrile,3.563662441
,,0.875569609,0,0,21,720,0.651489381,0.800990734,1.520970905,C_{11}H_{16}O,"InChI=1S/C11H16O/c1-8-5-6-9(10(12)7-8)11(2,3)4/h5-7,12H,1-4H3",XOUQAVYLRNOXDO-UHFFFAOYSA-N,"2-(1,1-dimethylethyl)-5-methylphenol",2.568828572
,,0.922740447,0,0,21,510.7,0.747106907,0.898569527,1.916266968,C_{7}H_{16}O_{2},"InChI=1S/C7H16O2/c1-5-8-7(3,4)9-6-2/h5-6H2,1-4H3",FGQLGYBGTRHODR-UHFFFAOYSA-N,"2,2-diethoxypropane",2.755561067
,,1.030614147,0,0,21,662,1.239630669,0.99996643,0.731034656,C_{8}H_{10}O,"InChI=1S/C8H10O/c1-7-5-3-4-6-8(7)9-2/h3-6H,1-2H3",DTFKRVXLBCAIOZ-UHFFFAOYSA-N,1-methoxy-2-methylbenzene,3.978097476
,,1.072246236,0,0,21,640.9,1.151444195,0.999920438,0.843326603,C_{4}H_{7}NO,"InChI=1S/C4H7NO/c1-6-4-2-3-5/h2,4H2,1H3",OOWFYDWAMOKVSF-UHFFFAOYSA-N,3-methoxypropanenitrile,3.5199942
,0.226182427,1.135513874,0,2,21,809,1.342171918,0.999986804,0.682304997,C_{11}H_{9}N,InChI=1S/C11H9N/c1-2-6-10(7-3-1)11-8-4-5-9-12-11/h1-9H,VQGHOUODWALEFC-UHFFFAOYSA-N,2-phenylpyridine,3.53660315
,,1.196619691,0,0,21,639,0.65363255,0.902943215,1.546374034,C_{7}H_{12}O_{2},InChI=1S/C7H12O2/c1-2-4-7(3-1)8-5-6-9-7/h1-6H2,IJDXSTIWUARVEK-UHFFFAOYSA-N,"1,4-dioxaspiro[4.4]nonane",4.734095709
,,1.239579768,0,0,21,599,1.211345085,0.914742641,0.731354605,C_{6}H_{12}O_{2},"InChI=1S/C6H12O2/c1-2-3-6-7-4-5-8-6/h6H,2-5H2,1H3",JSDUOUVZQRZOOY-UHFFFAOYSA-N,"1,3-dioxolane, 2-propyl-",3.897330978
,,1.262414643,0,0,21,630,0.465358625,0.630022203,1.032916378,C_{7}H_{14}O_{2},"InChI=1S/C7H14O2/c1-3-4-7(2)8-5-6-9-7/h3-6H2,1-2H3",NXGWCOIWOMWSDT-UHFFFAOYSA-N,"1,3-dioxolane, 2-methyl-2-propyl-",3.583779462
,,1.277187428,0,0,21,783,1.748188279,0.550978018,0.7529728,C_{17}H_{24}O_{4},"InChI=1S/C17H24O4/c1-11-8-12(20-14(18)16(2,3)4)10-13(9-11)21-15(19)17(5,6)7/h8-10H,1-7H3",XFVAYGNQTNLVLU-UHFFFAOYSA-N,"3-[(2,2-dimethylpropanoyl)oxy]-5-methylphenyl 2,2-dimethylpropanoate",1.421721907
,,1.296323045,0,0,21,512,0.344042013,0.830012678,2.902289705,C_{8}HF_{17},"InChI=1S/C8HF17/c9-1(10)2(11,12)3(13,14)4(15,16)5(17,18)6(19,20)7(21,22)8(23,24)25/h1H",KBHBUUBXEQUIMV-UHFFFAOYSA-N,1H-perfluorooctane,1.477534101
,,1.32125385,0,0,21,586,1.55421544,0.998923129,0.541191834,C_{5}H_{10}O_{2},"InChI=1S/C5H10O2/c1-5-2-3-6-4-7-5/h5H,2-4H2,1H3",INCCMBMMWVKEGJ-UHFFFAOYSA-N,"4-methyl-1,3-dioxane",4.440001381
,0.046527184,1.416509894,0,1,21,614.7,1.563363016,0.999990131,0.634460617,C_{5}H_{12}O_{2},"InChI=1S/C5H12O2/c1-2-4-7-5-3-6/h6H,2-5H2,1H3",YEYKMVJDLWJFOA-UHFFFAOYSA-N,2-propoxyethanol,3.649997516
,,1.484220509,0,0,21,677,1.768193651,0.901108287,0.581776704,C_{4}H_{6}O_{2},"InChI=1S/C4H6O2/c5-4(6)3-1-2-3/h3H,1-2H2,(H,5,6)",YMGUBTXCNDTFJI-UHFFFAOYSA-N,cyclopropanecarboxylic acid,5.126077309
,0.001614325,1.581437369,0,1,21,669.6,1.354124021,0.800004464,0.511345085,C_{6}H_{4}BrF,InChI=1S/C6H4BrF/c7-5-3-1-2-4-6(5)8/h1-4H,IPWBFGUBXWMIPR-UHFFFAOYSA-N,1-bromo-2-fluorobenzene,4.282400463
,,1.593213057,0,0,21,684,1.094105407,0.897869497,1.340630206,C_{11}H_{20}O_{4},"InChI=1S/C11H20O4/c1-3-8-14-10(12)6-5-7-11(13)15-9-4-2/h3-9H2,1-2H3",IXAVSISAEGUDSL-UHFFFAOYSA-N,"pentanedioic acid, dipropyl ester",1.236843346
,,1.855216338,0,0,21,605.2,0.63881912,0.82043047,1.616647774,C_{8}H_{16}O_{2},"InChI=1S/C8H16O2/c1-3-5-6-7-10-8(9)4-2/h3-7H2,1-2H3",TWSRVQVEYJNFKQ-UHFFFAOYSA-N,amyl propionate,2.219368329
,,1.855397642,0,0,21,537,0.731889245,0.956047435,1.285609529,C_{7}H_{14},"InChI=1S/C7H14/c1-4-5-6-7(2)3/h6H,4-5H2,1-3H3",BWEKDYGHDCHWEN-UHFFFAOYSA-N,2-methyl-2-hexene,3.062453493
,,1.8657607,0,0,21,831,1.294527564,0.000514724,0.498852715,C_{6}H_{10}N_{2},"InChI=1S/C6H10N2/c1-2-4-8-5-3-7-6-8/h3,5-6H,2,4H2,1H3",IYVYLVCVXXCYRI-UHFFFAOYSA-N,1-propylimidazole,5.756099769
,,1.882353808,0,0,21,553.65,0.222460437,0.83247894,2.855212359,C_{3}H_{4}F_{4}O,"InChI=1S/C3H4F4O/c4-1-3(6,7)2(5)8/h2,8H,1H2",AOWVOSYMBLPOKE-UHFFFAOYSA-N,"1,2,2,3-tetrafluoro-1-propanol",2.754129214
,,1.898629829,0,0,21,664,1.215907104,0.935081947,0.593127994,C_{2}H_{6}S_{2},"InChI=1S/C2H6S2/c3-1-2-4/h3-4H,1-2H2",VYMPLPIFKRHAAC-UHFFFAOYSA-N,"1,2-ethanedithiol",5.749598043
,,1.937292924,0,0,21,731,0.291881901,0.764016941,1.886433184,C_{5}H_{10}N_{2}O,"InChI=1S/C5H10N2O/c1-6-3-4-7(2)5(6)8/h3-4H2,1-2H3",CYSGHNMQYZDMIA-UHFFFAOYSA-N,"1,3-dimethyl-2-imidazolidinone",3.288026442
,0.085322628,2.126198628,0,21,21,712,1.94504782,0.999934953,0.537173778,C_{8}H_{20}N_{2},InChI=1S/C8H20N2/c9-7-5-3-1-2-4-6-8-10/h1-10H2,PWGJDPKCLMLPJW-UHFFFAOYSA-N,"1,8-diaminooctane",2.823267423
,,2.149894321,0,0,21,872,1.922392513,0.607346313,0.5285389,C_{13}H_{24}N_{2},"InChI=1S/C13H24N2/c1-2-3-4-5-6-7-8-9-11-15-12-10-14-13-15/h10,12-13H,2-9,11H2,1H3",PEPIOVUNFZBCIB-UHFFFAOYSA-N,1-decylimidazole,2.403734541
,,2.324055367,0,0,21,535.7,0.490259129,0.902963691,1.870009688,C_{6}H_{15}N,"InChI=1S/C6H15N/c1-4-5-6-7(2)3/h4-6H2,1-3H3",DJEQZVQFEPKLOY-UHFFFAOYSA-N,"N,N-dimethylbutanamine",3.255412895
,0.442035835,2.347589142,0,6,21,528,0.199043228,0.831019106,2.883626589,C_{4}H_{6}ClF_{3}O,"InChI=1S/C4H6ClF3O/c1-2-9-4(7,8)3(5)6/h3H,2H2,1H3",WOKICPFFJCXEDW-UHFFFAOYSA-N,"2-chloro-1-ethoxy-1,1,2-trifluoroethane",3.276277128
,0.625274945,2.516348932,0,4,21,558.7,0.493208517,0.92339519,1.672069596,C_{4}H_{9}Br,"InChI=1S/C4H9Br/c1-4(2)3-5/h4H,3H2,1-2H3",HLVFKOKELQSXIQ-UHFFFAOYSA-N,1-bromo-2-methylpropane,4.445708246
,0.594713396,2.584113093,0,12,21,620,0.232541387,0.829248498,2.915232236,C_{9}H_{18}O,"InChI=1S/C9H18O/c1-7(2)5-9(10)6-8(3)4/h7-8H,5-6H2,1-4H3",PTTPXKJBFFKCEK-UHFFFAOYSA-N,"2,6-dimethyl-4-heptanone",2.433206262
0.499967973,0.188182403,2.761877941,38,3,21,566,0.442757346,0.82014961,1.380529759,C_{6}H_{4}F_{2},InChI=1S/C6H4F2/c7-5-3-1-2-4-6(5)8/h1-4H,GOYDNIKZWGIXJT-UHFFFAOYSA-N,"1,2-difluorobenzene",4.272437329
,,3.165105217,0,0,21,679,0.884677425,0.833563565,1.423374062,C_{9}H_{16}O_{4},"InChI=1S/C9H16O4/c1-3-12-8(10)6-5-7-9(11)13-4-2/h3-7H2,1-2H3",OUWSNHWQZPEFEX-UHFFFAOYSA-N,diethyl glutarate,2.022665406
,,3.1704683,0,0,21,772,0.761611913,0.874034842,1.879909798,C_{16}H_{34}S,"InChI=1S/C16H34S/c1-3-5-7-9-11-13-15-17-16-14-12-10-8-6-4-2/h3-16H2,1-2H3",LOXRGHGHQYWXJK-UHFFFAOYSA-N,"1,1'-thiobisoctane",1.416001818
,,3.224647503,0,0,21,736,0.635335689,0.874529739,2.197605138,C_{8}H_{9}NO_{2},"InChI=1S/C8H9NO2/c1-11-8(10)9-7-5-3-2-4-6-7/h2-6H,1H3,(H,9,10)",IAGUPODHENSJEZ-UHFFFAOYSA-N,methyl N-phenylcarbamate,3.399252998
,,3.308667765,0,0,21,653.0783754,0,0.222790089,0.674195037,AsCl_{3},InChI=1S/AsCl3/c2-1(3)4,OEYOHULQRFXULB-UHFFFAOYSA-N,arsenic trichloride,4.838487762
,,3.519476456,0,0,21,637,1.825595533,0.979189461,0.490043627,C_{9}H_{18}O_{2},"InChI=1S/C9H18O2/c1-4-6-7-11-9(10)8(3)5-2/h8H,4-7H2,1-3H3",OTKQNSSMCDLVQV-UHFFFAOYSA-N,"butanoic acid, 2-methyl-, butyl ester",2.446585366
,0.050510001,3.626270927,0,1,21,705,1.410319889,0.998929815,0.752702886,C_{13}H_{26},"InChI=1S/C13H26/c1-2-3-4-5-7-10-13-11-8-6-9-12-13/h13H,2-12H2,1H3",MSTLSCNJAHAQNU-UHFFFAOYSA-N,heptylcyclohexane,1.938004219
,,3.806575693,0,0,21,574,0.749499453,0.668860072,0.885301538,C_{3}H_{9}O_{3}P,InChI=1S/C3H9O3P/c1-4-7(5-2)6-3/h1-3H3,CYTQBVOFDCPGCX-UHFFFAOYSA-N,trimethyl phosphite,3.430107415
0.180500821,0.708915126,4.322850364,21,3,21,672,0.690681574,0.800484578,0.889474202,C_{6}H_{12}S,"InChI=1S/C6H12S/c7-6-4-2-1-3-5-6/h6-7H,1-5H2",CMKBCTPCXZNQKX-UHFFFAOYSA-N,cyclohexanethiol,4.251671139
,,4.89721937,0,0,21,520,0.773434168,0.889742151,2.013640059,C_{9}H_{11}F_{9},"InChI=1S/C9H11F9/c1-2-3-4-5-6(10,11)7(12,13)8(14,15)9(16,17)18/h2-5H2,1H3",GYDMBTYTWYNRGO-UHFFFAOYSA-N,"1,1,1,2,2,3,3,4,4-nonafluorononane",2.423123519
,,5.000149644,0,0,21,540,0.800369667,0.891585838,1.992760549,C_{10}H_{13}F_{9},"InChI=1S/C10H13F9/c1-2-3-4-5-6-7(11,12)8(13,14)9(15,16)10(17,18)19/h2-6H2,1H3",YGGBKWYCPRYWRI-UHFFFAOYSA-N,"1,1,1,2,2,3,3,4,4-nonafluorodecane",2.219915143
,0.087173469,5.877391586,0,1,21,670,0.895244931,0.829033239,1.226849963,C_{12}H_{20}O_{2},"InChI=1S/C12H20O2/c1-6-12(5,14-11(4)13)9-7-8-10(2)3/h6,8H,1,7,9H2,2-5H3",UWKAYLJWKGQEPM-UHFFFAOYSA-N,linalool acetate,1.952566832
,,6.14591912,0,0,21,616,0.689764176,0.92368994,1.669174977,C_{3}H_{6}O_{2},"InChI=1S/C3H6O2/c1-3(5)2-4/h4H,2H2,1H3",XLSMFKSTNGKWQX-UHFFFAOYSA-N,acetol,5.531434675
,,6.754002533,0,0,21,702,2.919237976,0.782868218,0.445250534,C_{12}H_{26}O,"InChI=1S/C12H26O/c1-3-4-5-6-7-8-9-10-11-12(2)13/h12-13H,3-11H2,1-2H3",XSWSEQPWKOWORN-UHFFFAOYSA-N,2-dodecanol,1.915739153
,,12.73440458,0,0,21,752,0.188833382,0.566999692,1.521071015,C_{13}H_{20}O,"InChI=1S/C13H20O/c1-10-6-5-9-13(3,4)12(10)8-7-11(2)14/h7-8H,5-6,9H2,1-4H3/b8-7+",PSQYTAPXSHCGMF-BQYQJAHWSA-N,"(E)-4-(2,6,6-trimethyl-1-cyclohexen-1-yl)-3-buten-2-one",2.432491587
,,13.21248348,0,0,21,546.1,0,0.292410726,1.234001346,C_{6}H_{6}F_{8}O,"InChI=1S/C6H6F8O/c1-15-2-4(9,10)6(13,14)5(11,12)3(7)8/h3H,2H2,1H3",OHYJUFNURZXEOG-UHFFFAOYSA-N,"1,1,2,2,3,3,4,4-octafluoro-5-methoxypentane",2.423622132
0.160286235,5.788552282,14.73865021,36,1,21,748,0.540053147,0.828118601,1.343379792,C_{6}H_{4}Br_{2},InChI=1S/C6H4Br2/c7-5-3-1-2-4-6(5)8/h1-4H,WQONPSCCEXUXTQ-UHFFFAOYSA-N,"1,2-dibromobenzene",3.86039555
,14.84918702,18.48491089,0,1,21,698.27047,0.291170387,0.824345364,3.01501389,C_{10}H_{14}O,"InChI=1S/C10H14O/c1-7(2)9-5-4-8(3)6-10(9)11/h4-7,11H,1-3H3",MGSRCZKZVOBKFT-UHFFFAOYSA-N,3-methyl-6-isopropylphenol,2.835361864
,,22.73098862,0,0,21,780,1.389962321,0.983838181,0.904572582,C_{15}H_{16},"InChI=1S/C15H16/c1-3-8-14(9-4-1)12-7-13-15-10-5-2-6-11-15/h1-6,8-11H,7,12-13H2",VEAFKIYNHVBNIP-UHFFFAOYSA-N,"1,3-diphenylpropane",2.420819336
,12.02470015,40.79396882,0,2,21,578,0.660250763,0.92340272,1.67178124,C_{6}H_{10}O_{2},"InChI=1S/C6H10O2/c1-5(2)4-6(7)8-3/h4H,1-3H3",FZIBCCGGICGWBP-UHFFFAOYSA-N,methyl 3-methyl-2-butenoate,3.291617954
,,0.024778786,0,0,20,597.7,0.275821234,0.81871405,2.144008602,C_{6}H_{14}S,"InChI=1S/C6H14S/c1-4-7-5-6(2)3/h6H,4-5H2,1-3H3",OIRKGXWQBSPXLQ-UHFFFAOYSA-N,1-(ethylthio)-2-methylpropane,2.999845225
,0.000110468,0.029080896,0,1,20,523.78,0.515525419,0.774639219,1.980487322,C_{9}F_{21}N,"InChI=1S/C9F21N/c10-1(11,4(16,17)18)7(25,26)31(8(27,28)2(12,13)5(19,20)21)9(29,30)3(14,15)6(22,23)24",JAJLKEVKNDUJBG-UHFFFAOYSA-N,"1,1,2,2,3,3,3-heptafluoro-N,N-bis(heptafluoropropyl)-1-propanamine",1.35600619
,,0.031710009,0,0,20,756,0.400245704,0.806762742,2.026797364,C_{10}H_{10}O,"InChI=1S/C10H10O/c1-9(8-11)7-10-5-3-2-4-6-10/h2-8H,1H3",VLUMOWNVWOXZAU-UHFFFAOYSA-N,2-methyl-3-phenyl-2-propenal,3.347807843
,,0.038484261,0,0,20,864,0.66053305,0.812562354,1.88674149,C_{14}H_{12}O_{4},"InChI=1S/C14H12O4/c1-17-13(15)11-5-3-10-8-12(14(16)18-2)6-4-9(10)7-11/h3-8H,1-2H3",GYUVMLBYMPKZAZ-UHFFFAOYSA-N,"dimethyl 2,6-naphthalenedicarboxylate",1.996794367
,,0.040489381,0,0,20,499,0.223435309,0.818821998,3.13660026,C_{8}F_{16},"InChI=1S/C8F16/c9-1(4(14,15)8(22,23)24)2(10,11)5(16,17)7(20,21)6(18,19)3(1,12)13",SEEJHICDPXGSRQ-UHFFFAOYSA-N,"cyclohexane, undecafluoro(pentafluoroethyl)-",1.533775766
,,0.047382714,0,0,20,661,0.166866815,0.849624109,2.554731463,C_{6}H_{12}S,"InChI=1S/C6H12S/c1-6-4-2-3-5-7-6/h6H,2-5H2,1H3",VLBGYQISAJHVAD-UHFFFAOYSA-N,2-methylthiacyclohexane,4.137523856
,,0.055193424,0,0,20,642.4,0.28244318,0.810177771,2.838353386,C_{10}H_{20}O_{2},"InChI=1S/C10H20O2/c1-4-6-7-10(5-2)8-12-9(3)11/h10H,4-8H2,1-3H3",WOYWLLHHWAMFCB-UHFFFAOYSA-N,"1-hexanol, 2-ethyl-, acetate",2.019636076
,,0.063281889,0,0,20,541,0.454804627,0.820578812,1.505226641,C_{7}H_{14},"InChI=1S/C7H14/c1-4-6-7(3)5-2/h6H,4-5H2,1-3H3/b7-6+",FHHSSXNRVNXTBG-VOTSOKGWSA-N,(E)-3-methyl-3-hexene,3.01826633
,,0.091032493,0,0,20,538.9,0.2479359,0.827325633,2.123742973,C_{7}H_{14},"InChI=1S/C7H14/c1-5-7(4)6(2)3/h6H,4-5H2,1-3H3",ADHCYQWFCLQBFG-UHFFFAOYSA-N,"1-butene, 2-ethyl-3-methyl-",3.302585002
,9.43363E-05,0.099460229,0,1,20,618,0.283282543,0.823579265,1.975463816,C_{4}H_{8}Cl_{2},"InChI=1S/C4H8Cl2/c1-4(6)2-3-5/h4H,2-3H2,1H3",QBGVARBIQGHVKR-UHFFFAOYSA-N,"1,3-dichlorobutane",3.886958161
,0.001441654,0.135621069,0,1,20,538,0.369858827,0.802264808,2.481413109,C_{10}F_{18},"InChI=1S/C10F18/c11-1-2(12,5(17,18)9(25,26)7(21,22)3(1,13)14)6(19,20)10(27,28)8(23,24)4(1,15)16/t1-,2+",UWEYRJFJVCLAGH-XIXRPRMCSA-N,cis-perfluorodecahydronaphthalene,1.187953575
,,0.151703842,0,0,20,499,0.323249141,0.804676958,3.478939492,C_{8}F_{18}O_{6},"InChI=1S/C8F18O6/c9-1(10,27-5(19,20)31-7(23,24)29-3(13,14)15)2(11,12)28-6(21,22)32-8(25,26)30-4(16,17)18",JYLBBPMOCXISGF-UHFFFAOYSA-N,"perfluoro-2,4,6,9,11,13-hexaoxatetradecane",1.122427699
,,0.214615815,0,0,20,890,1.489620595,0.985346806,0.779166248,C_{6}H_{6}N_{2}O,"InChI=1S/C6H6N2O/c7-6(9)5-2-1-3-8-4-5/h1-4H,(H2,7,9)",DFPAKSUCGFBDDF-UHFFFAOYSA-N,3-pyridinecarboxamide,5.268748811
,0.002929982,0.265869093,0,1,20,772,0.527959263,0.856407825,2.105928488,C_{12}H_{11}N,"InChI=1S/C12H11N/c1-2-6-11(7-3-1)10-12-8-4-5-9-13-12/h1-9H,10H2",PCFUWBOSXMKGIP-UHFFFAOYSA-N,2-benzylpyridine,3.098338996
,,0.27852107,0,0,20,457,1.549962554,0.411160195,0.707484408,C_{5}H_{2}F_{10},"InChI=1S/C5H2F10/c6-1(2(7)4(10,11)12)3(8,9)5(13,14)15/h1-2H",RIQRGMUSBYGDBL-UHFFFAOYSA-N,"1,1,1,2,2,3,4,5,5,5-decafluoropentane",2.125596723
,,0.426730161,0,0,20,823,0.757460346,0.661697649,1.086344636,C_{18}H_{22},"InChI=1S/C18H22/c1-5-18(4,16-12-10-14(2)11-13-16)17-9-7-6-8-15(17)3/h6-13H,5H2,1-4H3",NIXQBQUJGPKFPF-UHFFFAOYSA-N,2-o-tolyl-2-p-tolylbutane,1.77769845
,,0.652236251,0,0,20,685,0.98258821,0.999993973,0.884536874,C_{10}H_{16},"InChI=1S/C10H16/c1-2-9-7-4-5-8(6-7)10(9)3-1/h7-10H,1-6H2/t7-,8+,9-,10+",LPSXSORODABQKT-YNFQOJQRSA-N,"4,7-methano-1H-indene, octahydro-, (3a.alpha.,4.alpha.,7.alpha.,7a.alpha.)-",3.169080393
,,0.851853579,0,0,20,706,0.336374173,0.809445369,2.417549939,C_{10}H_{12}O_{2},"InChI=1S/C10H12O2/c1-2-12-10(11)8-9-6-4-3-5-7-9/h3-7H,2,8H2,1H3",DULCUDSUACXJJC-UHFFFAOYSA-N,ethyl phenylacetate,2.839074224
,,0.859763532,0,0,20,689,1.136338051,0.999958159,0.896524188,C_{8}H_{16}Cl_{2},"InChI=1S/C8H16Cl2/c1-2-3-4-5-6-8(10)7-9/h8H,2-7H2,1H3",LYVLPCUIYWOEBI-UHFFFAOYSA-N,"1,2-dichlorooctane",2.502376906