AAD_Csat,AAD_hfg,AAD_psat,N_Csat,N_hfg,N_psat,Tc_K,c0,c1,c2,formula,inchi,inchikey,name,pc_MPa
,1.771389081,0.296777185,0,2,33,775,0.531792568,0.819841831,1.360874853,C_{7}H_{5}NS,InChI=1S/C7H5NS/c1-2-4-7-6(3-1)8-5-9-7/h1-5H,IOJUPLGTWVMSFF-UHFFFAOYSA-N,benzothiazole,4.543771159
,,0.44014925,0,0,33,635.3,1.157724719,0.999793886,0.655795244,C_{5}H_{11}I,"InChI=1S/C5H11I/c1-5(2)3-4-6/h5H,3-4H2,1-2H3",BUZZUHJODKQYTF-UHFFFAOYSA-N,1-iodo-3-methylbutane,3.472537997
,,0.728369832,0,0,33,951,1.184452686,0.909723198,1.674984222,C_{24}H_{32}O_{8},"InChI=1S/C24H32O8/c1-2-6-22-21(5-1)29-17-13-25-9-10-27-15-19-31-23-7-3-4-8-24(23)32-20-16-28-12-11-26-14-18-30-22/h1-8H,9-20H2",UNTITLLXXOKDTB-UHFFFAOYSA-N,dibenzo-24-crown-8,1.350335739
,,0.775388407,0,0,33,560,1.049913443,0.997928231,0.755802816,C_{5}H_{10}O,"InChI=1S/C5H10O/c1-5(2)3-4-6/h4-5H,3H2,1-2H3",YGHRJJRRZDOVPD-UHFFFAOYSA-N,3-methylbutanal,4.262097108
,,0.878815834,0,0,33,558.5,1.051837086,0.999990407,0.784939156,C_{8}H_{16},"InChI=1S/C8H16/c1-7(2)6-8(3,4)5/h6H,1-5H3",LAAVYEUJEMRIGF-UHFFFAOYSA-N,"2,4,4-trimethyl-2-pentene",3.013345364
,,0.908226477,0,0,33,551,0.292136455,0.838940868,1.885371955,C_{7}H_{14},"InChI=1S/C7H14/c1-6-3-4-7(2)5-6/h6-7H,3-5H2,1-2H3/t6-,7-/m1/s1",XAZKFISIRYLAEE-RNFRBKRXSA-N,"(1R,3R)-1,3-dimethylcyclopentane",3.344081377
,,0.956582625,0,0,33,841,1.181333512,0.912715889,1.021814163,C_{12}H_{24}O_{6},InChI=1S/C12H24O6/c1-2-14-5-6-16-9-10-18-12-11-17-8-7-15-4-3-13-1/h1-12H2,XEZNGIUYQVAUSS-UHFFFAOYSA-N,"1,4,7,10,13,16-hexaoxacyclooctadecane",2.810005206
,,1.274032024,0,0,33,605.1,1.585243459,0.922306357,0.634499412,C_{6}H_{14}O_{2},"InChI=1S/C6H14O2/c1-3-4-8-5-6(2)7/h6-7H,3-5H2,1-2H3",FENFUOGYJVOCRY-UHFFFAOYSA-N,1-propoxy-2-propanol,3.051019927
,0.160929745,1.48580254,0,1,33,690,1.549839631,0.999936589,0.534291083,C_{8}H_{11}N,"InChI=1S/C8H11N/c1-7(9)8-5-3-2-4-6-8/h2-7H,9H2,1H3",RQEUFEKYXDPUSK-UHFFFAOYSA-N,1-phenylethanamine,3.829596106
0.094812908,0.13863727,1.532583805,27,6,33,571.2,0.413720134,0.807181604,1.511982638,C_{5}H_{11}Cl,"InChI=1S/C5H11Cl/c1-2-3-4-5-6/h2-5H2,1H3",SQCZQTSHSZLZIQ-UHFFFAOYSA-N,1-chloropentane,3.450347181
0.733275161,,1.640217617,8,0,33,555,1.309464811,0.96557493,0.539929759,C_{7}H_{14},"InChI=1S/C7H14/c1-6-4-3-5-7(6)2/h6-7H,3-5H2,1-2H3/t6-,7-/m1/s1",RIRARCHMRDHZAR-RNFRBKRXSA-N,"1,trans-2-dimethylcyclopentane",3.513186353
,,1.734899336,0,0,33,621,2.190293631,0.829713281,0.358280179,C_{4}H_{12}N_{2},"InChI=1S/C4H12N2/c1-4(2,6)3-5/h3,5-6H2,1-2H3",OPCJOXGBLDJWRM-UHFFFAOYSA-N,"2-methyl-1,2-propanediamine",5.221265066
,,1.791379897,0,0,33,771,0.38810179,0.875760642,2.181905906,C_{8}H_{6}N_{2},InChI=1S/C8H6N2/c1-2-4-8-7(3-1)5-9-6-10-8/h1-6H,JWVCLYRUEFBMGU-UHFFFAOYSA-N,"1,3-benzodiazine",4.803675186
,,1.795452253,0,0,33,575.78426,0.512155225,0.878269777,2.150277079,C_{6}H_{12}O_{2},"InChI=1S/C6H12O2/c1-2-3-4-5-8-6-7/h6H,2-5H2,1H3",DIQMPQMYFZXDAX-UHFFFAOYSA-N,pentyl methanoate,3.494617762
,,2.091995602,0,0,33,944,0.967698263,0.857263365,1.698121286,C_{20}H_{24}O_{6},"InChI=1S/C20H24O6/c1-2-6-18-17(5-1)23-13-9-21-11-15-25-19-7-3-4-8-20(19)26-16-12-22-10-14-24-18/h1-8H,9-16H2",YSSSPARMOAYJTE-UHFFFAOYSA-N,"dibenzo[b,k][1,4,7,10,13,16]hexaoxacyclooctadecane",1.823537239
,0.197769072,3.137710235,0,1,33,570,1.157319862,0.999804851,0.858879288,C_{7}H_{14}O_{2},"InChI=1S/C7H14O2/c1-5-7(3,4)9-6(2)8/h5H2,1-4H3",JCCIFDCPHCKATH-UHFFFAOYSA-N,"1,1-dimethylpropyl acetate",3.052428116
,1.375644138,4.145126434,0,1,33,628,1.599211045,0.99999075,0.465252039,C_{8}H_{18}S,"InChI=1S/C8H18S/c1-7(2,3)9-8(4,5)6/h1-6H3",LNMBCRKRCIMQLW-UHFFFAOYSA-N,"2,2,4,4-tetramethyl-3-thiapentane",2.909115876
,,4.509838677,0,0,33,447,1.268583143,0.992353286,0.486461999,C_{4}H_{4},"InChI=1S/C4H4/c1-3-4-2/h1,4H,2H2",WFYPICNXBKQZGB-UHFFFAOYSA-N,1-buten-3-yne,4.973333795
,,4.80713345,0,0,33,485,0.504060658,0.923788429,1.667732714,C_{3}HCl_{2}F_{5},"InChI=1S/C3HCl2F5/c4-1(6)2(7,8)3(5,9)10/h1H",UJIGKESMIPTWJH-UHFFFAOYSA-N,"1,3-dichloro-1,1,2,2,3-pentafluoropropane",3.286925841
,,5.114554025,0,0,33,881,0.800153777,0.887619716,2.037771426,C_{7}H_{6}N_{2}O_{3},"InChI=1S/C7H6N2O3/c8-7(10)5-2-1-3-6(4-5)9(11)12/h1-4H,(H2,8,10)",KWAYEPXDGHYGRW-UHFFFAOYSA-N,3-nitrobenzamide,4.091571927
,,5.597842758,0,0,33,749,0.874451844,0.807059639,0.930365737,C_{6}H_{10}O_{2},"InChI=1S/C6H10O2/c1-5-3-2-4-6(7)8-5/h5H,2-4H2,1H3",RZTOWFMDBDPERY-UHFFFAOYSA-N,"2H-pyran-2-one, tetrahydro-6-methyl-",4.260750562
,,5.655523379,0,0,33,766,1.060435817,0.999999637,0.928292011,C_{12}H_{12},"InChI=1S/C12H12/c1-2-10-7-5-8-11-6-3-4-9-12(10)11/h3-9H,2H2,1H3",ZMXIYERNXPIYFR-UHFFFAOYSA-N,1-ethylnaphthalene,3.069882507
,0.285867326,6.165769067,0,1,33,632,0.371827637,0.829461721,2.913698172,C_{9}H_{12}O_{2},"InChI=1S/C9H12O2/c1-10-9(11-2)8-6-4-3-5-7-8/h3-7,9H,1-2H3",HEVMDQBCAHEHDY-UHFFFAOYSA-N,".alpha.,.alpha.-dimethoxytoluene",3.427117669
,0.660482734,6.695670956,0,4,33,603.46,2.75838792,0.706013481,0.458173649,C_{6}H_{14}O,"InChI=1S/C6H14O/c1-6(2)4-3-5-7/h6-7H,3-5H2,1-2H3",PCWGTDULNUVNBN-UHFFFAOYSA-N,4-methyl-1-pentanol,3.386093076
,,9.384142356,0,0,33,773,1.142845044,0.99993474,0.702736319,C_{6}H_{4}Cl_{2}O,"InChI=1S/C6H4Cl2O/c7-4-2-1-3-5(8)6(4)9/h1-3,9H",HOLHYSJJBXSLMV-UHFFFAOYSA-N,"2,6-dichlorophenol",5.276909351
,1.151517041,9.625665625,0,1,33,723,0.226848321,0.84679988,2.600203856,C_{6}H_{3}Cl_{3},InChI=1S/C6H3Cl3/c7-4-1-2-5(8)6(9)3-4/h1-3H,PBKONEOXTCPAFI-UHFFFAOYSA-N,"1,2,4-trichlorobenzene",3.551925135
,0.209371494,10.37226992,0,1,33,792,0.236936068,0.838494402,2.743975342,C_{10}H_{9}N,"InChI=1S/C10H9N/c1-8-6-7-11-10-5-3-2-4-9(8)10/h2-7H,1H3",MUDSDYNRBDKLGK-UHFFFAOYSA-N,4-methylquinoline,3.747927925
,,10.93539326,0,0,33,651,0.697252764,0.93608281,1.495341892,C_{7}H_{14}O,"InChI=1S/C7H14O/c1-7(8)5-3-2-4-6-7/h8H,2-6H2,1H3",VTBOTOBFGSVRMA-UHFFFAOYSA-N,1-methylcyclohexanol,2.905087575
,,12.26836684,0,0,33,613,1.643461732,0.238358814,0.791883721,C_{8}H_{18}O,"InChI=1S/C8H18O/c1-4-5-6-7-8(2,3)9/h9H,4-7H2,1-3H3",ACBMYYVZWKYLIP-UHFFFAOYSA-N,"2-heptanol, 2-methyl-",2.599622489
,,13.27347784,0,0,33,634,1.369976325,0.25692413,0.830948901,C_{5}H_{8}O_{3},"InChI=1S/C5H8O3/c1-4(6)3-5(7)8-2/h3H2,1-2H3",WRQNANDWMGAFTP-UHFFFAOYSA-N,methyl 3-oxobutanoate,3.763784862
,,15.9239401,0,0,33,867.2,0.562623126,0.805915577,3.440847493,C_{33}H_{68},"InChI=1S/C33H68/c1-3-5-7-9-11-13-15-17-19-21-23-25-27-29-31-33-32-30-28-26-24-22-20-18-16-14-12-10-8-6-4-2/h3-33H2,1-2H3",SUJUOAZFECLBOA-UHFFFAOYSA-N,tritriacontane,0.634514819
,,0.125958266,0,0,32,852,0.681897682,0.828155762,1.474539329,C_{13}H_{15}N,"InChI=1S/C13H15N/c1-14-12-8-4-2-6-10(12)11-7-3-5-9-13(11)14/h2,4,6,8H,3,5,7,9H2,1H3",LXRZSWPAXJBXQM-UHFFFAOYSA-N,"1,2,3,4-tetrahydro-N-methylcarbazole",2.592546245
,,0.269733454,0,0,32,745,0.466087802,0.850746759,2.537211682,C_{9}H_{8}O_{3},"InChI=1S/C9H8O3/c1-12-9(11)8-4-2-7(6-10)3-5-8/h2-6H,1H3",FEIOASZZURHTHB-UHFFFAOYSA-N,methyl 4-formylbenzoate,3.268234341
,,0.352107974,0,0,32,734,0.498031993,0.813539115,1.689245368,C_{8}H_{7}ClO,"InChI=1S/C8H7ClO/c1-6(10)7-2-4-8(9)5-3-7/h2-5H,1H3",BUZYGTVTZYSBCU-UHFFFAOYSA-N,4'-chloroacetophenone,3.045279468
0.213536983,,0.576123751,8,0,32,570,0.328299487,0.816133471,1.563906683,C_{6}H_{8},"InChI=1S/C6H8/c1-2-4-6-5-3-1/h1-2,5-6H,3-4H2",UVJHQYIOXKWHFD-UHFFFAOYSA-N,"1,4-cyclohexadiene",4.689246236
,,0.642584494,0,0,32,483.7446134,0.784249226,0.999668503,0.785333754,C_{3}H_{7}NO_{2},"InChI=1S/C3H7NO2/c1-3(2)6-4-5/h3H,1-2H3",SKRDXYBATCVEMS-UHFFFAOYSA-N,isopropyl nitrite,2.993623795
,,0.821869909,0,0,32,597.38,0.261500662,0.833405721,2.837862527,C_{7}H_{12}O_{2},"InChI=1S/C7H12O2/c1-3-5-6-9-7(8)4-2/h4H,2-3,5-6H2,1H3",CQEYYJKEWSMYFG-UHFFFAOYSA-N,butyl 2-propenoate,2.94917144
,,0.82437063,0,0,32,652,0.369146422,0.800493285,1.66327857,C_{10}H_{20},"InChI=1S/C10H20/c1-10(2,3)9-7-5-4-6-8-9/h9H,4-8H2,1-3H3",XTVMZZBLCLWBPM-UHFFFAOYSA-N,"1,1-dimethylethylcyclohexane",2.828906135
,,0.940219582,0,0,32,718,0.588989482,0.446830725,1.413923614,C_{4}H_{10}N_{2}O,"InChI=1S/C4H10N2O/c1-5-4(7)6(2)3/h1-3H3,(H,5,7)",COSWCAGTKRUTQV-UHFFFAOYSA-N,"N,N,N'-trimethylurea",3.502008189
,,1.214876166,0,0,32,586.1,0.643241742,0.92319393,1.673901772,C_{7}H_{14}O_{2},"InChI=1S/C7H14O2/c1-4-6(2)5-9-7(3)8/h6H,4-5H2,1-3H3",XHIUFYZDQBSEMF-UHFFFAOYSA-N,2-methylbutyl ethanoate,2.890551245
,,1.508728166,0,0,32,892,0.699207441,0.88727991,1.544190266,C_{12}H_{8}N_{2},InChI=1S/C12H8N2/c1-3-9-5-6-11-10(4-2-7-13-11)12(9)14-8-1/h1-8H,OZKOMUDCMCEDTM-UHFFFAOYSA-N,"1,5-diazaphenanthrene",3.707902725
,,1.731826124,0,0,32,667,0.631259631,0.916631026,1.734815053,C_{6}H_{11}I,"InChI=1S/C6H11I/c7-6-4-2-1-3-5-6/h6H,1-5H2",FUCOMWZKWIEKRK-UHFFFAOYSA-N,iodocyclohexane,4.134620054
0.111000445,,1.765034774,20,0,32,496,0.824492919,0.871211182,0.783880604,C_{5}H_{8},"InChI=1S/C5H8/c1-4-5(2)3/h1H2,2-3H3",PAKGDPSCXSUALC-UHFFFAOYSA-N,"3-methyl-1,2-butadiene",4.749929819
,,1.856363338,0,0,32,548,0.786715623,0.939178346,1.218811831,C_{5}H_{8}O,"InChI=1S/C5H8O/c1-3-5(2)4-6/h4H,2-3H2,1H3",GMLDCZYTIPCVMO-UHFFFAOYSA-N,2-methylenebutanal,4.242789022
,,1.914337061,0,0,32,702,0.81181624,0.855587205,1.190116824,C_{10}H_{12}O,"InChI=1S/C10H12O/c1-3-4-9-5-7-10(11-2)8-6-9/h3,5-8H,1,4H2,2H3",ZFMSMUAANRJZFM-UHFFFAOYSA-N,1-allyl-4-methoxybenzene,2.990949877
,,1.951423792,0,0,32,648,0.237815094,0.836986718,2.771316054,C_{8}H_{10}O,"InChI=1S/C8H10O/c1-9-7-8-5-3-2-4-6-8/h2-6H,7H2,1H3",GQKZBCPTCWJTAS-UHFFFAOYSA-N,(methoxymethyl)benzene,3.509160376
,,2.214285497,0,0,32,683,0,0.234854164,0.684830429,C_{6}H_{14}N_{2},"InChI=1S/C6H14N2/c1-2-8-5-3-7-4-6-8/h7H,2-6H2,1H3",WGCYRFWNGRMRJA-UHFFFAOYSA-N,1-ethylpiperazine,4.123581904
,,2.32822033,0,0,32,809,1.65072E-05,0.060526091,0.550027831,C_{6}H_{10}N_{2},"InChI=1S/C6H10N2/c1-3-8-5-4-7-6(8)2/h4-5H,3H2,1-2H3",NYYVCPHBKQYINK-UHFFFAOYSA-N,1-ethyl-2-methyl-1H-imidazole,5.492470576
,,2.930760902,0,0,32,712,1.191057681,0.999993141,0.756312834,C_{8}H_{8}O,"InChI=1S/C8H8O/c1-7-2-4-8(6-9)5-3-7/h2-6H,1H3",FXLOVSHXALFLKQ-UHFFFAOYSA-N,4-methylbenzaldehyde,3.793263975
,,3.505985056,0,0,32,602,0.308898876,0.836823956,2.760322583,C_{4}H_{8}O_{3},"InChI=1S/C4H8O3/c1-3(5)4(6)7-2/h3,5H,1-2H3",LPEKGGXMPWTOCB-UHFFFAOYSA-N,methyl 2-hydroxypropanoate,3.968179965
0.197393582,1.010099624,3.644805022,33,3,32,608,0.713250609,0.82006761,0.893204454,C_{5}H_{6}S,"InChI=1S/C5H6S/c1-5-3-2-4-6-5/h2-4H,1H3",XQQBUAPQHNYYRS-UHFFFAOYSA-N,2-methylthiophene,4.997945782
,,4.146227721,0,0,32,742,1.285089505,0.999415263,0.781860728,C_{12}H_{23}N,"InChI=1S/C12H23N/c1-3-7-11(8-4-1)13-12-9-5-2-6-10-12/h11-13H,1-10H2",XBPCUCUWBYBCDP-UHFFFAOYSA-N,N-cyclohexylcyclohexanamine,2.592271326
,,8.237377256,0,0,32,745,0.748547545,0.891738907,1.990898984,C_{18}H_{36}O,"InChI=1S/C18H36O/c1-15(2)9-6-10-16(3)11-7-12-17(4)13-8-14-18(5)19/h15-17H,6-14H2,1-5H3",WHWDWIHXSPCOKZ-UHFFFAOYSA-N,"2,6,10-trimethyl-14-pentadecanone",1.223409051
,,13.48093636,0,0,32,575,0.657203062,0.908070085,1.818150249,C_{5}H_{10}O_{3},"InChI=1S/C5H10O3/c1-5(2,7)4(6)8-3/h7H,1-3H3",XYVQFUJDGOBPQI-UHFFFAOYSA-N,methyl 2-hydroxy-2-methylpropanoate,4.112976968
,0.193368506,14.88309891,0,1,32,718,0.736874939,0.895260894,1.951866937,C_{9}H_{16}N_{2},InChI=1S/C9H16N2/c1-2-5-9-10-6-4-8-11(9)7-3-1/h1-8H2,GQHTUMJGOHRCHB-UHFFFAOYSA-N,"1,8-diaza-7-bicyclo[5.4.0]undecene",4.424796785
,,0.510497787,0,0,31,652,0.280478478,0.804133214,2.324591802,C_{5}H_{12}N_{2}O,InChI=1S/C5H12N2O/c1-6(2)5(8)7(3)4/h1-4H3,AVQQQNCBBIEMEU-UHFFFAOYSA-N,tetramethylurea,3.180668141
,,0.68851278,0,0,31,512.4,0.881607766,0.892880943,0.838673067,C_{5}H_{13}N,"InChI=1S/C5H13N/c1-5(2)6(3)4/h5H,1-4H3",VMOWKUTXPNPTEN-UHFFFAOYSA-N,"N,N-dimethylisopropylamine",3.420312299
,,0.865886743,0,0,31,608,1.606937635,0.998851311,0.731053677,C_{6}H_{12}O,"InChI=1S/C6H12O/c1-2-3-4-5-6-7/h3-4,7H,2,5-6H2,1H3/b4-3-",UFLHIIWVXFIJGU-ARJAWSKDSA-N,(Z)-3-hexen-1-ol,3.674237523
,,1.150106053,0,0,31,617,0.857599745,0.809114587,1.055541217,C_{9}H_{18}O_{2},"InChI=1S/C9H18O2/c1-5-6-7-11-8(10)9(2,3)4/h5-7H2,1-4H3",FCDMDSDHBVPGGE-UHFFFAOYSA-N,"butyl 2,2-dimethylpropanoate",2.315613423
,,1.252194906,0,0,31,591,0.595345528,0.861107857,1.921249492,C_{7}H_{12}O_{2},"InChI=1S/C7H12O2/c1-4-9-7(8)5-6(2)3/h5H,4H2,1-3H3",UTXVCHVLDOLVPC-UHFFFAOYSA-N,ethyl 3-methyl-2-butenoate,3.23181548
,1.468116169,1.628724,0,1,31,577.78446,0.283266144,0.84568818,2.619547741,C_{6}H_{12}O_{2},"InChI=1S/C6H12O2/c1-6(2)3-4-8-5-7/h5-6H,3-4H2,1-2H3",XKYICAQFSCFURC-UHFFFAOYSA-N,3-methylbutyl methanoate,3.374845312
,0.020340983,1.685202082,0,1,31,605.9,1.511558878,0.888857991,0.570376724,C_{3}H_{5}ClO_{2},"InChI=1S/C3H5ClO2/c1-6-3(5)2-4/h2H2,1H3",QABLOFMHHSOFRJ-UHFFFAOYSA-N,methyl chloroethanoate,4.190658989
,,1.882240047,0,0,31,702,2.529039739,0.881359349,0.367624339,C_{7}H_{18}N_{2}O,"InChI=1S/C7H18N2O/c1-8(2)4-5-9(3)6-7-10/h10H,4-7H2,1-3H3",LSYBWANTZYUTGJ-UHFFFAOYSA-N,2-{[2-(dimethylamino)ethyl](methyl)amino}ethanol,2.90369703
,0.046649077,2.012495444,0,1,31,774,1.277663776,0.99997197,0.720154411,C_{12}H_{12},"InChI=1S/C12H12/c1-9-6-7-12-10(2)4-3-5-11(12)8-9/h3-8H,1-2H3",CBMXCNPQDUJNHT-UHFFFAOYSA-N,"1,6-dimethylnaphthalene",2.770805452
,,2.171220806,0,0,31,633,0.181445898,0.811425929,3.307961624,C_{7}H_{14}O,"InChI=1S/C7H14O/c1-6-4-2-3-5-7(6)8/h6-8H,2-5H2,1H3",NDVWOBYBJYUSMF-UHFFFAOYSA-N,2-methylcyclohexanol,3.634103351
,0.01125236,2.22049907,0,1,31,704,0.992563286,0.998622996,0.828882927,C_{6}H_{4}FI,InChI=1S/C6H4FI/c7-5-2-1-3-6(8)4-5/h1-4H,VSKSBSORLCDRHS-UHFFFAOYSA-N,"1,3-fluoroiodobenzene",4.780480983
,,2.30789986,0,0,31,857,1.953134936,0.883086916,0.483185646,C_{13}H_{24}N_{2},"InChI=1S/C13H24N2/c1-3-4-5-6-7-8-9-11-15-12-10-14-13(15)2/h10,12H,3-9,11H2,1-2H3",FKGMPZBNFPJVCH-UHFFFAOYSA-N,2-methyl-1-nonyl-1H-imidazole,2.319544826
,,2.343343641,0,0,31,654,1.360622224,0.999599387,0.760491153,C_{7}H_{14}O_{3},"InChI=1S/C7H14O3/c1-3-4-5-10-7(9)6(2)8/h6,8H,3-5H2,1-2H3",MRABAEUHTLLEML-UHFFFAOYSA-N,butyl 2-hydroxypropanoate,2.899772422
,0.097229552,2.703007907,0,14,31,657,1.282793207,0.977833161,0.603105219,C_{7}H_{7}Cl,"InChI=1S/C7H7Cl/c1-6-3-2-4-7(8)5-6/h2-5H,1H3",OSOUNOBYRMOXQQ-UHFFFAOYSA-N,3-chlorotoluene,3.719400135
0.832353436,2.321382631,2.809752592,20,1,31,483.67111,2.151134045,0.999975506,0.335707524,C_{4}H_{11}N,"InChI=1S/C4H11N/c1-4(2,3)5/h5H2,1-3H3",YBRBMKDOPFTVDT-UHFFFAOYSA-N,2-methyl-2-propanamine,3.848625485
,,3.486833365,0,0,31,578,0.963301746,0.784177428,1.196489478,C_{6}H_{14}O,"InChI=1S/C6H14O/c1-4-6(2,3)5-7/h7H,4-5H2,1-3H3",XRMVWAKMXZNZIL-UHFFFAOYSA-N,"2,2-dimethyl-1-butanol",3.565579579
,0.161041556,3.815969519,0,1,31,588.9,0.1554982,0.840647736,2.703907083,C_{8}H_{16},"InChI=1S/C8H16/c1-7-4-3-5-8(2)6-7/h7-8H,3-6H2,1-2H3/t7-,8-/m1/s1",SGVUHPSBDNVHKL-HTQZYQBOSA-N,"trans-1,3-dimethylcyclohexane",3.10116196
,,4.194473631,0,0,31,712,0.388831085,0.843617146,2.654550403,C_{11}H_{14}O_{2},"InChI=1S/C11H14O2/c1-9(2)8-13-11(12)10-6-4-3-5-7-10/h3-7,9H,8H2,1-2H3",KYZHGEFMXZOSJN-UHFFFAOYSA-N,2-methylpropyl benzoate,2.852695795
0.112086023,0.120897097,4.268783127,23,1,31,657.6,0.702230602,0.797252719,1.464923983,C_{12}H_{24},"InChI=1S/C12H24/c1-3-5-7-9-11-12-10-8-6-4-2/h3H,1,4-12H2,2H3",CRSBERNSMYQZNG-UHFFFAOYSA-N,1-dodecene,1.930565687
,0.069476863,4.522704344,0,1,31,691,0.118808416,0.805592112,3.453315058,C_{8}H_{10}O_{2},"InChI=1S/C8H10O2/c1-9-7-5-3-4-6-8(7)10-2/h3-6H,1-2H3",ABDKAPXRBAPSQN-UHFFFAOYSA-N,"1,2-dimethoxybenzene",3.40037875
,,4.690610087,0,0,31,671,0.342714499,0.781096214,1.968239667,C_{12}H_{18},"InChI=1S/C12H18/c1-9(2)11-6-5-7-12(8-11)10(3)4/h5-10H,1-4H3",UNEATYXSUBPPKP-UHFFFAOYSA-N,"1,3-diisopropylbenzene",2.339648254
,0.328273256,4.969663423,0,4,31,644,0.259426557,0.839512139,2.722126198,C_{8}H_{11}N,"InChI=1S/C8H11N/c1-6-4-7(2)9-8(3)5-6/h4-5H,1-3H3",BWZVCCNYKMEVEX-UHFFFAOYSA-N,"2,4,6-trimethylpyridine",3.160025144
0.197158958,0.58671275,5.426206209,60,28,31,641,1.278507333,0.941070281,0.540596889,C_{6}H_{11}Cl,"InChI=1S/C6H11Cl/c7-6-4-2-1-3-5-6/h6H,1-5H2",UNFUYWDGSFDHCW-UHFFFAOYSA-N,chlorocyclohexane,4.065596206
,,5.577294406,0,0,31,628.408155,2.657938329,0.845029403,0.438218567,C_{8}H_{18}O,"InChI=1S/C8H18O/c1-3-5-6-7-8(9)4-2/h8-9H,3-7H2,1-2H3",NMRPBPVERJPACX-UHFFFAOYSA-N,3-octanol,3.068832361
,0.057512895,6.764296139,0,1,31,804,0.852615968,0.838232021,1.24462122,C_{16}H_{18},"InChI=1S/C16H18/c1-16(2,3)15-11-7-10-14(12-15)13-8-5-4-6-9-13/h4-12H,1-3H3",GBGBXUYACWXKPV-UHFFFAOYSA-N,"3-(1,1-dimethylethyl)-1,1'-biphenyl",2.666591859
,,7.201924286,0,0,31,783,2.549778421,0.930825565,0.354099978,C_{13}H_{15}NO,"InChI=1S/C13H15NO/c1-10(2)11-5-7-12(8-6-11)13(3,4)14-9-15/h5-8H,1H2,2-4H3",JRLLJITWABKEKE-UHFFFAOYSA-N,1-(1-isocyanato-1-methylethyl)-4-(1-methylethenyl)benzene,2.315960179
,0.323945816,7.426976428,0,2,31,557.1,1.205909158,0.999545389,0.763327175,C_{5}H_{13}N,"InChI=1S/C5H13N/c1-2-3-4-5-6/h2-6H2,1H3",DPBLXKKOBLCELK-UHFFFAOYSA-N,1-pentanamine,3.887113811
,,8.396756223,0,0,31,618.2,1.149567236,0.982967364,1.076854315,C_{6}H_{10}O_{4},"InChI=1S/C6H10O4/c1-4(7)9-6(3)10-5(2)8/h6H,1-3H3",ACKALUBLCWJVNB-UHFFFAOYSA-N,ethylidene diethanoate,2.979764234
,,8.832734333,0,0,31,705,0.690925464,0.921722825,1.687209298,C_{7}H_{7}NO_{2},"InChI=1S/C7H7NO2/c1-10-7(9)6-2-4-8-5-3-6/h2-5H,1H3",OLXYLDUSSBULGU-UHFFFAOYSA-N,methyl 4-pyridinecarboxylate,3.875026081
,,10.02975062,0,0,31,619,0.494357943,0.828186362,2.136791359,C_{6}H_{12}O_{2},"InChI=1S/C6H12O2/c1-5(7)4-6(2,3)8/h8H,4H2,1-3H3",SWXVUIWOUIDPGS-UHFFFAOYSA-N,4-hydroxy-4-methylpentan-2-one,3.789778615
,,12.31328456,0,0,31,645.3,0.371045206,0.68593645,1.975850921,C_{9}H_{20}O,"InChI=1S/C9H20O/c1-3-5-7-9(10)8-6-4-2/h9-10H,3-8H2,1-2H3",FCBBRODPXVPZAH-UHFFFAOYSA-N,5-nonanol,2.524956284
,,13.87198487,0,0,31,851,0.629707082,0.919905731,1.704053415,C_{12}H_{8}N_{2},InChI=1S/C12H8N2/c1-2-6-10-9(5-1)13-11-7-3-4-8-12(11)14-10/h1-8H,PCNDJXKNXGMECE-UHFFFAOYSA-N,phenazine,2.461832004
,,21.84946392,0,0,31,668.543141,0.904929811,0.69710679,1.222866966,C_{10}H_{22}O,"InChI=1S/C10H22O/c1-3-4-5-6-7-8-9-10(2)11/h10-11H,3-9H2,1-2H3",ACUZDYFTRHEKOS-UHFFFAOYSA-N,2-decanol,2.315841934
,,0.01489323,0,0,30,758,0.442675472,0.817560782,1.60371526,C_{8}H_{8}S,"InChI=1S/C8H8S/c1-2-4-8-7(3-1)5-6-9-8/h1-4H,5-6H2",YJUFGFXVASPYFQ-UHFFFAOYSA-N,1-thiaindan,3.642809377
,,0.186240156,0,0,30,459.9,0.491552009,0.82588499,1.551974774,C_{4}H_{5}F_{5},"InChI=1S/C4H5F5/c1-3(5,6)2-4(7,8)9/h2H2,1H3",WZLFPVPRZGTCKP-UHFFFAOYSA-N,"1,1,1,3,3-pentafluorobutane",3.21008217
,,0.405639371,0,0,30,640.6,1.076165302,0.984798795,1.082844244,C_{8}H_{15}NO_{2},"InChI=1S/C8H15NO2/c1-7(2)8(10)11-6-5-9(3)4/h1,5-6H2,2-4H3",JKNCOURZONDCGV-UHFFFAOYSA-N,2-(dimethylamino)ethyl methylpropenoate,2.648914351
,,0.591310562,0,0,30,605,0.226191319,0.828133702,2.225424835,C_{9}H_{18},"InChI=1S/C9H18/c1-8-5-4-6-9(2,3)7-8/h8H,4-7H2,1-3H3",PYOLJOJPIPCRDP-UHFFFAOYSA-N,"1,1,3-trimethylcyclohexane",2.786003831
,0.15418135,0.647287269,0,5,30,560.611,0.261462966,0.809572705,1.781768648,C_{2}Br_{2}ClF_{3},"InChI=1S/C2Br2ClF3/c3-1(5,6)2(4,7)8",OVZATIUQXBLIQT-UHFFFAOYSA-N,"1,2-dibromo-2-chloro-1,1,2-trifluroethane",3.608935954
,0.117681891,0.660311213,0,1,30,603.3,1.233917561,0.999995194,0.565223673,C_{4}H_{9}I,"InChI=1S/C4H9I/c1-4(2)3-5/h4H,3H2,1-2H3",BTUGGGLMQBJCBN-UHFFFAOYSA-N,1-iodo-2-methylpropane,3.671280941
,,0.972707711,0,0,30,621,0.419221762,0.818218098,1.566360214,C_{9}H_{18},"InChI=1S/C9H18/c1-3-9-6-4-5-8(2)7-9/h8-9H,3-7H2,1-2H3/t8-,9+/m0/s1",UDDVMPHNQKRNNS-DTWKUNHWSA-N,"(1R,3S)-1-ethyl-3-methylcyclohexane",2.908034528
,,1.069129113,0,0,30,609,1.584092856,0.464603945,0.400556658,C_{6}H_{13}N,"InChI=1S/C6H13N/c1-7-5-3-2-4-6-7/h2-6H2,1H3",PAMIQIKDUOTOBW-UHFFFAOYSA-N,N-methylpiperidine,4.258649727
,,1.109312491,0,0,30,738,1.193457754,0.999841471,0.978699995,C_{12}H_{16}O_{2},"InChI=1S/C12H16O2/c1-12(2,3)10-7-5-9(6-8-10)11(13)14-4/h5-8H,1-4H3",UPIJOAFHOIWPLT-UHFFFAOYSA-N,methyl 4-tert-butylbenzoate,2.371931119
0.850313449,,1.72855764,10,0,30,604,0.188230721,0.851349923,2.527779117,C_{2}Cl_{4}O,"InChI=1S/C2Cl4O/c3-1(7)2(4,5)6",PVFOMCVHYWHZJE-UHFFFAOYSA-N,trichloroacetyl chloride,4.184163478