AAD_Csat,AAD_hfg,AAD_psat,N_Csat,N_hfg,N_psat,Tc_K,c0,c1,c2,formula,inchi,inchikey,name,pc_MPa
,10.4861252,20.51218972,0,1,17,526,0,0.130816777,1.128057734,C_{9}F_{16},"InChI=1S/C9F16/c10-1-2(11,4(14,15)7(20,21)3(1,12)13)6(18,19)9(24,25)8(22,23)5(1,16)17/t1-,2-/m1/s1",NLQOEOVORMKOIY-JCYAYHJZSA-N,trans-perfluorobicyclo[4.3.0]nonane,1.682194042
,10.68495415,21.0906784,0,1,17,530,0,0.176573695,1.195946472,C_{9}F_{16},"InChI=1S/C9F16/c10-1-2(11,4(14,15)7(20,21)3(1,12)13)6(18,19)9(24,25)8(22,23)5(1,16)17/t1-,2+",NLQOEOVORMKOIY-XIXRPRMCSA-N,cis-perfluorobicyclo[4.3.0]nonane,1.711366846
,,25.13809519,0,0,17,778,1.914239042,0.970712215,0.532731397,C_{16}H_{18},"InChI=1S/C16H18/c1-2-9-16(14-10-5-3-6-11-14)15-12-7-4-8-13-15/h3-8,10-13,16H,2,9H2,1H3",SZFDQMKAGLCYPA-UHFFFAOYSA-N,"1,1-diphenylbutane",2.155669606
,,51.40439815,0,0,17,708.2,0.596416189,0.923080797,1.674416394,C_{8}H_{18}S_{2},"InChI=1S/C8H18S2/c1-3-5-7-9-10-8-6-4-2/h3-8H2,1-2H3",CUDSBWGCGSUXDB-UHFFFAOYSA-N,"5,6-dithiadecane",2.454090516
,,0.007275771,0,0,16,613.7,0.782960293,0.870726202,1.079073023,C_{4}H_{9}NO_{2},"InChI=1S/C4H9NO2/c1-4(2)3-5(6)7/h4H,3H2,1-2H3",XFXRMDNWSGXSNJ-UHFFFAOYSA-N,1-nitro-2-methylpropane,3.416382057
,0.000184094,0.093921886,0,1,16,700,0.191245921,0.836577027,2.60658663,C_{13}H_{22},"InChI=1S/C13H22/c1-11-4-10-5-12(2,7-11)9-13(3,6-10)8-11/h10H,4-9H2,1-3H3",WCACLGXPFTYVEL-UHFFFAOYSA-N,"1,3,5-trimethyl-tricyclo[3.3.1.1(3,7)]decane",2.419256612
,,0.142466358,0,0,16,719,0.534317945,0.827507501,2.258915339,C_{11}H_{20}O_{3},"InChI=1S/C11H20O3/c1-3-4-5-6-9-14-11(13)8-7-10(2)12/h3-9H2,1-2H3",HBBVKEXMLPMFQQ-UHFFFAOYSA-N,n-hexyl levulinate,2.052620027
,,0.197550879,0,0,16,571,1.05703635,0.959656307,0.857507817,C_{8}H_{16},"InChI=1S/C8H16/c1-3-5-7-8-6-4-2/h5,7H,3-4,6,8H2,1-2H3/b7-5+",YCTDZYMMFQCTEO-FNORWQNLSA-N,(E)-3-octene,2.68112605
,,0.203940103,0,0,16,703,0.652738572,0.881566556,2.033646928,C_{10}H_{18}O_{3},"InChI=1S/C10H18O3/c1-8(2)6-7-13-10(12)5-4-9(3)11/h8H,4-7H2,1-3H3",NYIALINCMIXBSP-UHFFFAOYSA-N,isoamyl levulinate,2.389283208
,,0.21122185,0,0,16,778,0.356830317,0.85156217,2.52436308,C_{12}H_{12},"InChI=1S/C12H12/c1-9-5-3-7-11-8-4-6-10(2)12(9)11/h3-8H,1-2H3",XAABPYINPXYOLM-UHFFFAOYSA-N,"1,8-dimethylnaphthalene",2.916233962
,,0.253792048,0,0,16,597.36026,0.250351899,0.811868358,3.297903799,C_{10}H_{30}O_{3}Si_{4},"InChI=1S/C10H30O3Si4/c1-14(2,3)11-17(10,12-15(4,5)6)13-16(7,8)9/h1-10H3",RGMZNZABJYWAEC-UHFFFAOYSA-N,methyltris(trimethylsiloxy)silane,1.210842825
,,0.26522142,0,0,16,600.7,0.113225731,0.804457435,3.485049824,C_{7}H_{16}O_{2},"InChI=1S/C7H16O2/c1-6(8)5-9-7(2,3)4/h6,8H,5H2,1-4H3",GQCZPFJGIXHZMB-UHFFFAOYSA-N,"1-(1,1-dimethylethoxy)-2-propanol",2.729091277
,,0.281460385,0,0,16,740.0180619,0.543751031,0.805807675,1.727737457,C_{6}H_{5}BrO,"InChI=1S/C6H5BrO/c7-5-1-3-6(8)4-2-5/h1-4,8H",GZFGOTFRPZRKDS-UHFFFAOYSA-N,4-bromophenol,4.151176588
,,0.47812591,0,0,16,543,0.92889861,0.997237406,0.674612881,C_{2}H_{4}S,InChI=1S/C2H4S/c1-2-3-1/h1-2H2,VOVUARRWDCVURC-UHFFFAOYSA-N,thiacyclopropane,6.63425212
,,0.501978397,0,0,16,736,0.555888341,0.869431849,1.708642965,C_{10}H_{18}O,InChI=1S/C10H18O/c11-10-8-6-4-2-1-3-5-7-9-10/h1-9H2,SXOZDDAFVJANJP-UHFFFAOYSA-N,cyclodecanone,3.27196355
,,0.618160318,0,0,16,596,1.847852139,0.944327878,0.728851206,C_{7}H_{6}F_{8}O_{3},"InChI=1S/C7H6F8O3/c8-3(9)6(12,13)1-17-5(16)18-2-7(14,15)4(10)11/h3-4H,1-2H2",VDLHKDQLOUOMTC-UHFFFAOYSA-N,bis(tetrafluoropropyl) carbonate,2.20954576
,,0.65755758,0,0,16,449.961,1.311191255,0.999970644,0.773467018,C_{6}F_{14},"InChI=1S/C6F14/c7-1(4(12,13)14,2(8,9)5(15,16)17)3(10,11)6(18,19)20",GXSFAIDPYIEIEF-UHFFFAOYSA-N,"pentane, undecafluoro-3-(trifluoromethyl)-",1.692122757
0.189043556,0.094565201,0.708307548,3,1,16,524,0.373742041,0.853864547,1.70675582,C_{4}H_{9}Br,"InChI=1S/C4H9Br/c1-4(2,3)5/h1-3H3",RKSOPLXZQNSWAS-UHFFFAOYSA-N,2-bromo-2-methylpropane,3.497039762
,,0.842497438,0,0,16,629.6,0.358133563,0.857092938,2.355054098,C_{8}H_{18}S,"InChI=1S/C8H18S/c1-5-7(3)9-8(4)6-2/h7-8H,5-6H2,1-4H3",IEBAOPMEYUWQPD-UHFFFAOYSA-N,2-(1-methylpropylthio)butane,2.875618998
,,0.84607129,0,0,16,378,0,0.378626717,0.91701914,C_{3}H_{3}F_{3}O,"InChI=1S/C3H3F3O/c1-2-7-3(4,5)6/h2H,1H2",FPDZOFFZSWSOSL-UHFFFAOYSA-N,perfluoromethyl vinyl ether,3.087999987
,,0.941749224,0,0,16,705,0.422821756,0.837152547,2.768311299,C_{10}H_{18}O_{3},"InChI=1S/C10H18O3/c1-3-4-5-8-13-10(12)7-6-9(2)11/h3-8H2,1-2H3",NLDFWNCRMVSDMC-UHFFFAOYSA-N,pentyl levulinate,2.285778886
,0.001222755,0.98030796,0,1,16,773,0.762422256,0.831711781,1.444680936,C_{10}H_{18}O_{2},"InChI=1S/C10H18O2/c1-2-3-4-5-6-9-7-8-10(11)12-9/h9H,2-8H2,1H3",IFYYFLINQYPWGJ-UHFFFAOYSA-N,.gamma.-decalactone,2.535111502
,,1.025616532,0,0,16,814,1.67055494,0.888495245,0.375440652,C_{6}H_{10}N_{2},"InChI=1S/C6H10N2/c1-6(2)8-4-3-7-5-8/h3-6H,1-2H3",IPIORGCOGQZEHO-UHFFFAOYSA-N,N-(1-methylethyl)-imidazole,5.722922531
,,1.072580884,0,0,16,723,1.102628564,0.999995346,0.741704676,C_{6}H_{4}BrCl,InChI=1S/C6H4BrCl/c7-5-3-1-2-4-6(5)8/h1-4H,QBELEDRHMPMKHP-UHFFFAOYSA-N,1-bromo-2-chlorobenzene,4.411872722
,,1.124881941,0,0,16,743,1.343469863,0.998793524,0.860480042,C_{11}H_{15}BrO,"InChI=1S/C11H15BrO/c1-8(2)7-13-11-5-4-9(3)6-10(11)12/h4-6,8H,7H2,1-3H3",YVHDBWCXOLXDDD-UHFFFAOYSA-N,2-bromo-1-isobutoxy-4-methylbenzene,2.386406009
,,1.22967416,0,0,16,740,0.768447649,0.864852728,2.327266573,C_{15}H_{28}O_{3},"InChI=1S/C15H28O3/c1-3-4-5-6-7-8-9-10-13-18-15(17)12-11-14(2)16/h3-13H2,1-2H3",HQUKURPUHDNRCS-UHFFFAOYSA-N,n-decyl levulinate,1.98157732
,,1.238975958,0,0,16,671,1.191197801,0.737928711,0.808709608,C_{4}H_{11}NO,"InChI=1S/C4H11NO/c1-2-5-3-4-6/h5-6H,2-4H2,1H3",MIJDSYMOBYNHOT-UHFFFAOYSA-N,2-(ethylamino)ethanol,5.319313024
0.130191133,,1.312874376,17,0,16,658.8,0.442184895,0.834906402,2.210086626,C_{9}H_{19}Cl,"InChI=1S/C9H19Cl/c1-2-3-4-5-6-7-8-9-10/h2-9H2,1H3",RKAMCQVGHFRILV-UHFFFAOYSA-N,1-chlorononane,2.365620012
,,1.42987989,0,0,16,651,1.16510531,0.946635581,0.675607554,C_{10}H_{18},"InChI=1S/C10H18/c1-7-4-5-8-6-9(7)10(8,2)3/h7-9H,4-6H2,1-3H3/t7-,8+,9+/m0/s1",XOKSLPVRUOBDEW-DJLDLDEBSA-N,"(1RS,2SR,5RS)-2,6,6-trimethylbicyclo[3.1.1]heptane",2.80889909
,5.80992E-05,1.431524771,0,1,16,696,0.592559275,0.747144246,0.975193842,C_{6}H_{11}N_{3},"InChI=1S/C6H11N3/c7-9-8-6-4-2-1-3-5-6/h6H,1-5H2",ODSNIGPBQIINLA-UHFFFAOYSA-N,azidocyclohexane,6.113428359
,,1.459802144,0,0,16,626,0.521917864,0.874147355,1.756214887,C_{8}H_{17}N,"InChI=1S/C8H17N/c1-9(2)8-6-4-3-5-7-8/h8H,3-7H2,1-2H3",SVYKKECYCPFKGB-UHFFFAOYSA-N,"N,N-dimethylcyclohexylamine",3.10180434
,,1.520932548,0,0,16,528.7,0.492596636,0.923169956,1.673740418,C_{7}H_{14},"InChI=1S/C7H14/c1-4-5-6-7(2)3/h4,7H,1,5-6H2,2-3H3",JIUFYGIESXPUPL-UHFFFAOYSA-N,5-methyl-1-hexene,2.925158018
,,1.568206635,0,0,16,854,1.687272561,0.925360854,0.566563864,C_{8}H_{14}N_{2}O_{2},"InChI=1S/C8H14N2O2/c1-11-6-7-12-5-4-10-3-2-9-8-10/h2-3,8H,4-7H2,1H3",PQPPCJHRQRRHTA-UHFFFAOYSA-N,1-[2-(2-methoxyethoxy)ethyl]-1H-imidazole,3.917441597
,,1.573094192,0,0,16,697,0.35335831,0.845168619,2.627395611,C_{8}H_{10}O_{2},"InChI=1S/C8H10O2/c1-2-10-8-6-4-3-5-7(8)9/h3-6,9H,2H2,1H3",MOEFFSWKSMRFRQ-UHFFFAOYSA-N,"phenol, 2-ethoxy-",3.623544771
,,1.584550626,0,0,16,592.7,0.700670801,0.945738498,1.387749907,C_{9}H_{20},"InChI=1S/C9H20/c1-4-6-7-8-9(3)5-2/h9H,4-8H2,1-3H3",SEEOMASXHIJCDV-UHFFFAOYSA-N,3-methyloctane,2.419396217
,,1.730935951,0,0,16,694.4,0.445455336,0.829745861,2.396689438,C_{11}H_{23}Cl,"InChI=1S/C11H23Cl/c1-2-3-4-5-6-7-8-9-10-11-12/h2-11H2,1H3",ZHKKNUKCXPWZOP-UHFFFAOYSA-N,1-chloroundecane,1.982548253
,,1.736157334,0,0,16,482.4,1.025014297,0.998845774,0.665830801,C_{3}H_{7}Cl,"InChI=1S/C3H7Cl/c1-3(2)4/h3H,1-2H3",ULYZAYCEDJDHCC-UHFFFAOYSA-N,2-chloropropane,4.261088299
,,1.736400794,0,0,16,604.6,0.88048644,0.846571968,0.919000611,C_{7}H_{14}O,"InChI=1S/C7H14O/c1-4-7(5-2)6(3)8/h7H,4-5H2,1-3H3",GSNKRSKIWFBWEG-UHFFFAOYSA-N,"2-pentanone, 3-ethyl-",3.036881454
,,1.769101681,0,0,16,661,0.684665734,0.874680942,1.336730769,C_{10}H_{14},"InChI=1S/C10H14/c1-4-10-7-8(2)5-6-9(10)3/h5-7H,4H2,1-3H3",AXIUBBVSOWPLDA-UHFFFAOYSA-N,"1-ethyl-2,5-dimethylbenzene",2.829998823
,,1.810592126,0,0,16,722,0.979401584,0.943172038,1.248203107,C_{9}H_{11}N,"InChI=1S/C9H11N/c1-10-7-6-8-4-2-3-5-9(8)10/h2-5H,6-7H2,1H3",FIRXFHJQGIIJDB-UHFFFAOYSA-N,N-methylindoline,3.860137945
,,1.826250237,0,0,16,893,0.821963932,0.644720135,0.991989789,C_{10}H_{12}N_{2}O,"InChI=1S/C10H12N2O/c1-13-7-6-12-8-11-9-4-2-3-5-10(9)12/h2-5,8H,6-7H2,1H3",JEUJFDMULHJHDL-UHFFFAOYSA-N,1-(2-methoxyethyl)-1H-benzimidazole,3.962661201
,0.098346156,1.87919801,0,15,16,679,0.322668206,0.861014413,2.381748275,C_{8}H_{9}Cl,"InChI=1S/C8H9Cl/c1-6-4-3-5-7(2)8(6)9/h3-5H,1-2H3",VDXLAYAQGYCQEO-UHFFFAOYSA-N,"2-chloro-1,3-dimethylbenzene",3.416015365
,,1.927150759,0,0,16,806,2.399378427,0.000317812,0.534172136,C_{7}H_{12}N_{2},"InChI=1S/C7H12N2/c1-7(2,3)9-5-4-8-6-9/h4-6H,1-3H3",AMQKPABOPFXDQM-UHFFFAOYSA-N,N-tert-butylimidazole,4.531407561
,,1.975945079,0,0,16,796,0.769272376,0.795892963,1.493176067,C_{3}H_{8}N_{2}O,"InChI=1S/C3H8N2O/c1-4-3(6)5-2/h1-2H3,(H2,4,5,6)",MGJKQDOBUOMPEZ-UHFFFAOYSA-N,"1,3-dimethylurea",4.659641875
,,2.131737815,0,0,16,729,0.957631006,0.999948058,0.984199351,C_{7}H_{7}I,"InChI=1S/C7H7I/c1-6-3-2-4-7(8)5-6/h2-5H,1H3",VLCPISYURGTGLP-UHFFFAOYSA-N,1-iodo-3-methylbenzene,4.164492242
,,2.233924494,0,0,16,667,1.39700291,0.999000575,0.920189016,C_{10}H_{18}O_{4},"InChI=1S/C10H18O4/c1-7(2)9(11)13-5-6-14-10(12)8(3)4/h7-8H,5-6H2,1-4H3",IYBSIHJRXJGTMU-UHFFFAOYSA-N,"ethane-1,2-diyl bis(2-methylpropanoate)",2.059293678
,,2.292901031,0,0,16,749,0.629855435,0.861084304,1.727036383,C_{14}H_{28},InChI=1S/C14H28/c1-2-4-6-8-10-12-14-13-11-9-7-5-3-1/h1-14H2,KATXJJSCAPBIOB-UHFFFAOYSA-N,cyclotetradecane,1.967723716
,,2.322762172,0,0,16,632,0.644280039,0.888863647,2.023473995,C_{7}H_{14}O_{3},"InChI=1S/C7H14O3/c1-5(8)6(9)10-7(2,3)4/h5,8H,1-4H3/t5-/m0/s1",IXXMVXXFAJGOQO-YFKPBYRVSA-N,"propanoic acid, 2-hydroxy-, 1,1-dimethylethyl ester, (S)-",2.963533869
,0.008508388,2.625558121,0,1,16,877,0.988831662,0.965840874,1.20082621,C_{15}H_{12},"InChI=1S/C15H12/c1-11-5-4-8-15-13(11)10-9-12-6-2-3-7-14(12)15/h2-10H,1H3",DOWJXOHBNXRUOD-UHFFFAOYSA-N,1-methylphenanthrene,3.110927246
,0.03203848,2.679807135,0,1,16,642,1.040750549,0.794752854,0.817609907,C_{4}H_{5}Cl_{3}O_{2},"InChI=1S/C4H5Cl3O2/c1-2-9-3(8)4(5,6)7/h2H2,1H3",SJMLNDPIJZBEKY-UHFFFAOYSA-N,ethyl trichloroacetate,3.003623711
,0.345188641,2.725366804,0,16,16,673,0.393336158,0.830272194,2.897950549,C_{12}H_{22}O_{4},"InChI=1S/C12H22O4/c1-11(2,3)15-9(13)7-8-10(14)16-12(4,5)6/h7-8H2,1-6H3",GOORECODRBZTKF-UHFFFAOYSA-N,di-tert-butyl succinate,1.91136213
,0.044112514,2.862114796,0,1,16,685.7,1.212295964,0.999934114,0.811613203,C_{8}H_{8}O_{2},"InChI=1S/C8H8O2/c1-7(9)10-8-5-3-2-4-6-8/h2-6H,1H3",IPBVNPXQWQGGJP-UHFFFAOYSA-N,phenyl ethanoate,3.607425169
,,2.874475834,0,0,16,740,0.286298802,0.001283059,0.661590986,C_{13}H_{18}O_{2},"InChI=1S/C13H18O2/c1-12(2)9-14-13(3,15-10-12)11-7-5-4-6-8-11/h4-8H,9-10H2,1-3H3",AALXTPRRKXUUOM-UHFFFAOYSA-N,"1,3-dioxane, 2,5,5-trimethyl-2-phenyl-",2.37595144
,,2.875290052,0,0,16,565.11,0.944103499,0.970623056,1.1748641,C_{10}F_{18},"InChI=1S/C10F18/c11-1-2(12,5(17,18)9(25,26)7(21,22)3(1,13)14)6(19,20)10(27,28)8(23,24)4(1,15)16",UWEYRJFJVCLAGH-UHFFFAOYSA-N,perfluorodecalin,1.776365092
,,2.876131784,0,0,16,724,0.284614887,0.85111104,2.466901405,C_{10}H_{10},"InChI=1S/C10H10/c1-2-6-10-8-4-3-7-9(10)5-1/h1-6H,7-8H2",FUPIVZHYVSCYLX-UHFFFAOYSA-N,"1,4-dihydronaphthalene",4.11753901
,,2.943560286,0,0,16,603.5,0.282223974,0.844158388,2.636628456,C_{10}H_{22},"InChI=1S/C10H22/c1-5-10(4)8-6-7-9(2)3/h9-10H,5-8H2,1-4H3",ZALHPSXXQIPKTQ-UHFFFAOYSA-N,"2,6-dimethyloctane",2.148511829
,,3.007606213,0,0,16,842,1.008846915,0.346777238,0.590764037,C_{8}H_{14}N_{2},"InChI=1S/C8H14N2/c1-2-3-4-6-10-7-5-9-8-10/h5,7-8H,2-4,6H2,1H3",UPYVYJSWGZMBOU-UHFFFAOYSA-N,1-pentylimidazole,4.259167819
,0.009667761,3.280635062,0,1,16,869,0.681906669,0.89865706,1.777250691,C_{15}H_{12},"InChI=1S/C15H12/c1-11-6-7-14-9-12-4-2-3-5-13(12)10-15(14)8-11/h2-10H,1H3",GYMFBYTZOGMSQJ-UHFFFAOYSA-N,2-methylanthracene,3.104249777
,,3.31123083,0,0,16,663.4,0.336298162,0.825829101,2.984693274,C_{11}H_{22}O_{2},"InChI=1S/C11H22O2/c1-3-5-6-7-8-9-11(12)13-10-4-2/h3-10H2,1-2H3",IDHBLVYDNJDWNO-UHFFFAOYSA-N,propyl octanoate,1.977979915
0.174629428,,3.734147625,3,0,16,673,0.616689497,0.790069181,1.703103248,C_{13}H_{26},"InChI=1S/C13H26/c1-3-5-7-9-11-13-12-10-8-6-4-2/h3H,1,4-13H2,2H3",VQOXUMQBYILCKR-UHFFFAOYSA-N,1-tridecene,1.739468287
,,3.842319439,0,0,16,868,0.529569247,0.872019061,2.230285651,C_{15}H_{12},"InChI=1S/C15H12/c1-11-5-4-8-14-9-12-6-2-3-7-13(12)10-15(11)14/h2-10H,1H3",KZNJSFHJUQDYHE-UHFFFAOYSA-N,1-methylanthracene,3.163932934
,,4.265081476,0,0,16,636,1.089087515,0.999915615,0.90269999,C_{9}H_{19}N,"InChI=1S/C9H19N/c1-2-3-7-10-8-5-4-6-9-10/h2-9H2,1H3",AXWLKJWVMMAXBD-UHFFFAOYSA-N,1-butylpiperidine,2.588327256
,,4.35587577,0,0,16,542,0.519900256,0.941550112,1.432650586,C_{6}H_{10},InChI=1S/C6H10/c1-6-4-2-3-5-6/h1-5H2,NFJPEKRRHIYYES-UHFFFAOYSA-N,methylenecyclopentane,4.152940535
,,4.366391013,0,0,16,928,0.414779828,0.875032157,2.19117563,C_{15}H_{10},"InChI=1S/C15H10/c1-3-10-7-8-11-4-2-6-13-9-12(5-1)14(10)15(11)13/h1-8H,9H2",RKZDZWJDQTZDLD-UHFFFAOYSA-N,benzo[def]fluorene,3.895403629
,0.574271824,4.443377898,0,2,16,668,0.460819908,0.856895037,2.44221778,C_{7}H_{12}O_{3},"InChI=1S/C7H12O3/c1-2-3-7(8)10-5-6-4-9-6/h6H,2-5H2,1H3",YLNSNVGRSIOCEU-UHFFFAOYSA-N,glycidyl butyrate,3.889117848
,,4.47419801,0,0,16,897,1.715454509,0.176318886,0.588866966,C_{16}H_{30}O_{2},InChI=1S/C16H30O2/c17-16-14-12-10-8-6-4-2-1-3-5-7-9-11-13-15-18-16/h1-15H2,LOKPJYNMYCVCRM-UHFFFAOYSA-N,oxacycloheptadecan-2-one,2.121519181
,,4.687103246,0,0,16,680,0.209151187,0.821056757,3.085119572,C_{11}H_{16},"InChI=1S/C11H16/c1-5-11-9(3)7-6-8(2)10(11)4/h6-7H,5H2,1-4H3",KQRPSLILDAZZMH-UHFFFAOYSA-N,"benzene, 2-ethyl-1,3,4-trimethyl-",2.674239059
,0.72916198,4.690980321,0,3,16,561.58168,1.227200073,0.999996568,0.723350164,C_{6}H_{12}O_{2},"InChI=1S/C6H12O2/c1-4-8-6(7)5(2)3/h5H,4H2,1-3H3",WDAXFOBOLVPGLV-UHFFFAOYSA-N,ethyl 2-methylpropanoate,3.060689954
,,4.80448767,0,0,16,627,1.933777823,0.821367973,0.513191529,C_{8}H_{14}O,"InChI=1S/C8H14O/c1-2-3-4-5-6-8-7-9-8/h2,8H,1,3-7H2",UKTHULMXFLCNAV-UHFFFAOYSA-N,"(.+-.)-1,2-epoxyoct-7-ene",3.139906799
0.306906978,,4.872719994,10,0,16,507,0.329426079,0.819868584,1.986566886,C_{3}H_{7}N,"InChI=1S/C3H7N/c4-3-1-2-3/h3H,1-2,4H2",HTJDQJBWANPRPF-UHFFFAOYSA-N,cyclopropanamine,7.210180711
,,4.913826845,0,0,16,754,0.459749975,0.882410145,1.995264786,C_{8}H_{6}N_{2},InChI=1S/C8H6N2/c1-2-4-8-7(3-1)9-5-6-10-8/h1-6H,XSCHRSMBECNVNS-UHFFFAOYSA-N,"1,4-benzodiazine",4.66043848
,0.046150432,5.237809515,0,1,16,732,0.553427101,0.829121414,2.92026004,C_{16}H_{28}O_{2},"InChI=1S/C16H28O2/c1-3-4-5-6-7-8-9-10-11-12-13-14-15-18-16(2)17/h4-7H,3,8-15H2,1-2H3/b5-4+,7-6+",RFEQLTBBKNKGGJ-YTXTXJHMSA-N,"(9E,11E)-tetradeca-9,11-dienyl acetate",1.546031348
,,5.261959193,0,0,16,887,0.97942805,0.848783817,2.568569839,C_{6}H_{12}O_{6},"InChI=1S/C6H12O6/c7-1-2(8)4(10)6(12)5(11)3(1)9/h1-12H/t1-,2-,3-,4+,5-,6-",CDAISMWEOUEBRE-GPIVLXJGSA-N,"cis-1,2,3,5-trans-4,6-cyclohexanehexol",3.81870665
,,5.737447411,0,0,16,763,1.532329658,0.680420889,0.986686272,C_{13}H_{26}O_{2},"InChI=1S/C13H26O2/c1-2-3-4-5-6-7-8-9-10-11-12-13(14)15/h2-12H2,1H3,(H,14,15)",SZHOJFHSIKHZHA-UHFFFAOYSA-N,tridecanoic acid,1.880064157
,,5.918277448,0,0,16,784,2.063565775,0.972361873,0.741229799,C_{9}H_{8}O_{4},"InChI=1S/C9H8O4/c1-13-9(12)7-4-2-6(3-5-7)8(10)11/h2-5H,1H3,(H,10,11)",REIDAMBAPLIATC-UHFFFAOYSA-N,"1,4-benzenedicarboxylic acid, monomethyl ester",3.678357955
,,6.591661385,0,0,16,738,0,0.205439758,0.907528038,C_{12}H_{22},InChI=1S/C12H22/c1-2-5-9-12(8-4-1)10-6-3-7-11-12/h1-11H2,ZDNANLAHKKNCTC-UHFFFAOYSA-N,spiro[6.5]dodecane,2.635158863
,,6.889089507,0,0,16,473.01,0.251921729,0.723571679,2.230855729,C_{5}H_{3}F_{9}O,"InChI=1S/C5H3F9O/c6-2(7)4(10,11)15-1-3(8,9)5(12,13)14/h2H,1H2",RPSFZSRVLPIAMN-UHFFFAOYSA-N,"1,1,1,2,2-pentafluoro-3-(1,1,2,2-tetrafluoroethoxy)propane",2.242744287
,0.059171809,7.326175999,0,1,16,725,0.600327569,0.832841091,2.848521438,C_{17}H_{30}O_{2},"InChI=1S/C17H30O2/c1-6-19-17(18)13-16(5)12-8-11-15(4)10-7-9-14(2)3/h8,12-15H,6-7,9-11H2,1-5H3/b12-8+,16-13+/t15-/m0/s1",FYQGBXGJFWXIPP-OJROSNHMSA-N,"ethyl (S,2E,4E)-3,7,11-trimethyldodeca-2,4-dienoate",1.425424612
0.487224382,0.333519961,7.327534783,46,3,16,571,0.884899111,0.819210271,0.722944351,C_{5}H_{12}S,"InChI=1S/C5H12S/c1-4-5(2,3)6/h6H,4H2,1-3H3",IQIBYAHJXQVQGB-UHFFFAOYSA-N,2-methyl-2-butanethiol,3.669449983
,,7.334291505,0,0,16,703,0,0.141987639,1.004216532,C_{5}H_{12}O_{2},"InChI=1S/C5H12O2/c1-4(6)3-5(2)7/h4-7H,3H2,1-2H3",GTCCGKPBSJZVRZ-UHFFFAOYSA-N,"2,4-pentanediol",4.126190811
,,7.359986808,0,0,16,778,1.404333819,0.999767234,0.766324795,C_{14}H_{16},"InChI=1S/C14H16/c1-2-3-6-12-9-10-13-7-4-5-8-14(13)11-12/h4-5,7-11H,2-3,6H2,1H3",UKAMWVYNAVUZEA-UHFFFAOYSA-N,2-butylnaphthalene,2.391280948
0.651587527,0.615993948,8.014256852,35,2,16,621,1.022789876,0.874379826,0.931013054,C_{7}H_{12}O_{2},"InChI=1S/C7H12O2/c8-6-9-7-4-2-1-3-5-7/h6-7H,1-5H2",VUXKVKAHWOVIDN-UHFFFAOYSA-N,cyclohexyl methanoate,3.659417787
,,8.430733539,0,0,16,778,1.449846447,0.998634287,0.686024203,C_{15}H_{16},"InChI=1S/C15H16/c1-13(15-10-6-3-7-11-15)12-14-8-4-2-5-9-14/h2-11,13H,12H2,1H3",XLWCIHPMASUXPI-UHFFFAOYSA-N,"1,2-diphenylpropane",2.360297331
,3.943117617,10.69841156,0,1,16,501.08,2.378697408,0.998690986,0.422647444,C_{4}H_{4}F_{6}O,"InChI=1S/C4H4F6O/c5-2(6)1-11-4(9,10)3(7)8/h2-3H,1H2",XYUTZEMBPIRNFA-UHFFFAOYSA-N,"1,1,2,2-tetrafluoro-2-(2,2-difluoroethoxy)ethane",3.089803429
,,11.90234175,0,0,16,719,1.312354344,0.999932582,0.703229878,C_{9}H_{10}O,"InChI=1S/C9H10O/c1-2-9(10)8-6-4-3-5-7-8/h3-7H,2H2,1H3",KRIOVPPHQSLHCZ-UHFFFAOYSA-N,ethyl phenyl ketone,3.688948644
,,13.07288542,0,0,16,719.9,0.794085525,0.888291963,2.030137316,C_{15}H_{30}O_{2},"InChI=1S/C15H30O2/c1-3-5-6-7-8-9-10-11-12-13-15(16)17-14-4-2/h3-14H2,1-2H3",FTBUKOLPOATXGV-UHFFFAOYSA-N,propyl dodecanoate,1.518449101
,,16.1462145,0,0,16,657,1.078069126,0.99985656,0.859200131,C_{5}H_{10}Cl_{2},"InChI=1S/C5H10Cl2/c1-5(7)3-2-4-6/h5H,2-4H2,1H3",IJZUPZAYWWVHIO-UHFFFAOYSA-N,"1,4-dichloropentane",3.841840668
,,16.32835967,0,0,16,827,0.310371542,0.694087689,1.734010553,C_{7}H_{6}N_{2}O_{4},"InChI=1S/C7H6N2O4/c1-5-6(8(10)11)3-2-4-7(5)9(12)13/h2-4H,1H3",XTRDKALNCIHHNI-UHFFFAOYSA-N,"2,6-dinitrotoluene",4.806910709
,,21.68594445,0,0,16,744,2.978211394,0.610197696,0.511069004,C_{14}H_{28}O,"InChI=1S/C14H28O/c1-2-3-4-5-6-7-8-9-10-11-12-13-14-15/h14H,2-13H2,1H3",UHUFTBALEZWWIH-UHFFFAOYSA-N,tetradecanal,1.701728497
,,0.006717425,0,0,15,548.4,0.25463065,0.826462146,2.01881194,C_{6}H_{4}F_{2},InChI=1S/C6H4F2/c7-5-2-1-3-6(8)4-5/h1-4H,UEMGWPRHOOEKTA-UHFFFAOYSA-N,"1,3-difluorobenzene",4.203546065
,,0.016015963,0,0,15,560.6,0.291264969,0.814122013,2.245106311,C_{8}H_{18}O,"InChI=1S/C8H18O/c1-7(2)5-9-6-8(3)4/h7-8H,5-6H2,1-4H3",SZNYYWIUQFZLLT-UHFFFAOYSA-N,diisobutyl ether,2.312522249
,,0.035623798,0,0,15,451.43,0.199583121,0.811868796,2.761524091,C_{6}F_{12},"InChI=1S/C6F12/c7-1(6(16,17)18)2(8,9)4(12,13)5(14,15)3(1,10)11",BCNXQFASJTYKDJ-UHFFFAOYSA-N,perfluoromethylcyclopentane,2.18109258
,,0.035713941,0,0,15,665,1.160110033,0.994971957,0.609433358,C_{6}H_{12}S,"InChI=1S/C6H12S/c1-6-3-2-4-7-5-6/h6H,2-5H2,1H3",WTPRCAYZVQKROM-UHFFFAOYSA-N,"2H-thiopyran, tetrahydro-3-methyl-",3.923866276
,0.054032938,0.068515,0,2,15,572,0.980507488,0.891259181,0.877072089,C_{4}H_{7}ClO_{2},"InChI=1S/C4H7ClO2/c1-2-3-7-4(5)6/h2-3H2,1H3",QQKDTTWZXHEGAQ-UHFFFAOYSA-N,propyl chloroformate,3.733172412
,,0.122747013,0,0,15,516,0.289161934,0.865186852,2.32263177,C_{6}H_{12},"InChI=1S/C6H12/c1-4-6(3)5-2/h4H,5H2,1-3H3/b6-4-",BEQGRRJLJLVQAQ-XQRVVYSFSA-N,(Z)-3-methyl-2-pentene,3.657510288
,,0.126868966,0,0,15,323.48695,0.838921255,0.999797672,0.666869232,Cl^{2}H,InChI=1S/ClH/h1H/i/hD,VEXZGXHMUGYJMC-DYCDLGHISA-N,deuterium chloride,8.020385954