AAD_Csat,AAD_hfg,AAD_psat,N_Csat,N_hfg,N_psat,Tc_K,c0,c1,c2,formula,inchi,inchikey,name,pc_MPa
,,6.795978917,0,0,10,776,0,0.276779564,1.121792472,C_{14}H_{22}O,"InChI=1S/C14H22O/c1-13(2,3)10-14(4,5)11-6-8-12(15)9-7-11/h6-9,15H,10H2,1-5H3",ISAVYTVYFVQUDY-UHFFFAOYSA-N,"4-(1,1,3,3-tetramethylbutyl)phenol",1.488630006
,,6.90773058,0,0,10,900,2.695671188,0.92127768,0.26670807,C_{6}H_{2}BrCl_{3}O,"InChI=1S/C6H2BrCl3O/c7-4-2(8)1-3(9)6(11)5(4)10/h1,11H",WCSDJPCZARJMHN-UHFFFAOYSA-N,"3-bromo-2,4,6-trichlorophenol",3.929766617
,,6.956130973,0,0,10,776,0.823863284,0.885620889,2.061323504,C_{19}H_{36},"InChI=1S/C19H36/c1-2-3-4-5-6-7-8-9-11-17-14-15-18-12-10-13-19(18)16-17/h17-19H,2-16H2,1H3",KQVBGIINSUKIBB-UHFFFAOYSA-N,3-decylbicyclo[4.3.0]nonane,1.868300368
,,7.0539199,0,0,10,655,0,0.195596826,0.810455453,C_{12}H_{20}O,"InChI=1S/C12H20O/c1-11(2,3)9-7-8-10(13-9)12(4,5)6/h7-8H,1-6H3",LHCFPVDATVVDLD-UHFFFAOYSA-N,"2,5-bis(1,1-dimethylethyl)furan",2.113895383
,,7.221173726,0,0,10,759,0.836817565,0.885468852,2.063078129,C_{19}H_{36},"InChI=1S/C19H36/c1-3-5-7-8-10-16-11-12-18-14-17(9-6-4-2)15-19(18)13-16/h16-19H,3-15H2,1-2H3",FLHBJKDPWVFHDH-UHFFFAOYSA-N,8-butyl-3-hexylbicyclo[4.3.0]nonane,1.861450133
,,7.340175853,0,0,10,958,0.857121004,0.86003713,2.395567207,C_{30}H_{34},"InChI=1S/C30H34/c1(3-5-7-15-25-19-13-21-27-17-9-11-23-29(25)27)2-4-6-8-16-26-20-14-22-28-18-10-12-24-30(26)28/h9-14,17-24H,1-8,15-16H2",MJOQAHPAUSIVEG-UHFFFAOYSA-N,"1,10-di(1-naphthyl)decane",1.28316344
,1.663800723,7.392781264,0,1,10,450,0,0.151121095,0.975818513,C_{4}H_{2}F_{8}O,"InChI=1S/C4H2F8O/c5-1-13-4(11,12)2(6,7)3(8,9)10/h1H2",XOFRNKSLTXTYFI-UHFFFAOYSA-N,"1,1,1,2,2,3,3-heptafluoro-3-fluoromethoxypropane",2.406193532
,,7.394136117,0,0,10,639,0.738739844,0.895313566,1.95132742,C_{9}H_{20}O_{3},"InChI=1S/C9H20O3/c1-7(2)11-6-9(4)12-5-8(3)10/h7-10H,5-6H2,1-4H3",FWYJECFVUAJCPF-UHFFFAOYSA-N,1-[1-methyl-2-(1-methylethoxy)ethoxy]-2-propanol,2.605897903
,,7.43611199,0,0,10,810,0.861570919,0.875931632,2.179731989,C_{20}H_{28},"InChI=1S/C20H28/c1-4-5-6-7-8-9-11-18-12-10-13-19-16(2)14-15-17(3)20(18)19/h10,12-15H,4-9,11H2,1-3H3",BSKSLVGHMZRDLE-UHFFFAOYSA-N,"1,4-dimethyl-5-octylnaphthalene",2.294586794
,0.00590995,7.624811165,0,1,10,768,1.954380681,0.999645351,0.986794482,C_{18}H_{34}O_{2},"InChI=1S/C18H34O2/c1-2-3-4-5-6-7-8-9-10-11-12-13-14-15-16-17-18(19)20/h9-10H,2-8,11-17H2,1H3,(H,19,20)/b10-9-",ZQPPMHVWECSIRJ-KTKRTIGZSA-N,(Z)-9-octadecenoic acid,1.280220635
,,7.97056882,0,0,10,720,1.630735453,0.998355725,0.657876779,C_{10}H_{14}O,"InChI=1S/C10H14O/c1-8(2)7-9-3-5-10(11)6-4-9/h3-6,8,11H,7H2,1-2H3",GDEHXPCZWFXRKC-UHFFFAOYSA-N,4-(2-methylpropyl)phenol,2.93428162
,,8.729820319,0,0,10,770,1.395698936,0.960148845,1.253451529,C_{8}H_{12}Cl_{2}O_{5},InChI=1S/C8H12Cl2O5/c9-5-7(11)14-3-1-13-2-4-15-8(12)6-10/h1-6H2,HMTPTJJAOZAOSQ-UHFFFAOYSA-N,diethyleneglycol bis(chloroethanoate),2.314437611
,,8.768555384,0,0,10,661,0.628047708,0.923694236,1.669327446,C_{4}H_{8}Br_{2},"InChI=1S/C4H8Br2/c1-4(2-5)3-6/h4H,2-3H2,1H3",SMGXHVWYXQYMNN-UHFFFAOYSA-N,"1,3-dibromo-2-methylpropane",5.068371242
,0.862634977,8.770095445,0,1,10,599,1.05471883,0.999930683,0.743154903,C_{6}H_{11}Cl,"InChI=1S/C6H11Cl/c1-6(7)4-2-3-5-6/h2-5H2,1H3",XDULUGNXCNQBNS-UHFFFAOYSA-N,1-chloro-1-methylcyclopentane,4.312871322
,0.231456691,9.327765188,0,1,10,627,0.317050617,0.838965328,2.735334857,C_{12}H_{27}N,"InChI=1S/C12H27N/c1-10(2)7-13(8-11(3)4)9-12(5)6/h10-12H,7-9H2,1-6H3",IIFFFBSAXDNJHX-UHFFFAOYSA-N,triisobutylamine,1.810337415
,,9.37755965,0,0,10,741,0.533790126,0.91637999,1.735345503,C_{10}H_{14}O,"InChI=1S/C10H14O/c1-10(2,3)8-4-6-9(11)7-5-8/h4-7,11H,1-3H3",QHPQWRBYOIRBIT-UHFFFAOYSA-N,"4-(1,1-dimethylethyl)phenol",3.195893586
,,9.578279738,0,0,10,702,1.510620634,0.984440077,0.778173418,C_{14}H_{22},"InChI=1S/C14H22/c1-5-11-9-12(6-2)14(8-4)13(7-3)10-11/h9-10H,5-8H2,1-4H3",QJEXLOSCNXHBAX-UHFFFAOYSA-N,"1,2,3,5-tetraethylbenzene",1.92150374
,,10.95055209,0,0,10,737,0.801977643,0.880856749,2.1182366,C_{4}H_{10}O_{3},"InChI=1S/C4H10O3/c1-3(6)4(7)2-5/h3-7H,2H2,1H3",YAXKTBLXMTYWDQ-UHFFFAOYSA-N,"1,2,3-butanetriol",5.426202062
,,11.43251681,0,0,10,667.6,1.373812087,0.999791613,0.990897699,C_{11}H_{25}N,"InChI=1S/C11H25N/c1-2-3-4-5-6-7-8-9-10-11-12/h2-12H2,1H3",QFKMMXYLAPZKIB-UHFFFAOYSA-N,1-aminoundecane,2.07743159
,,11.73048133,0,0,10,580,0.584095739,0.923664348,1.669597241,C_{5}H_{7}N,"InChI=1S/C5H7N/c1-3-5(2)4-6/h3H,1-2H3/b5-3+",IHXNSHZBFXGOJM-HWKANZROSA-N,(E)-2-methyl-2-butenenitrile,4.540752811
,2.697185789,12.65309031,0,1,10,446,0,0.222361183,1.084322125,C_{4}H_{2}F_{8}O,"InChI=1S/C4H2F8O/c5-2(6)13-1(3(7,8)9)4(10,11)12/h1-2H",UNIYHTKWMKXESF-UHFFFAOYSA-N,difluoromethyl hexafluoroisopropyl ether,2.183596733
,,13.02620283,0,0,10,892,0.704890878,0.896350552,1.940106128,C_{17}H_{18}O_{3},"InChI=1S/C17H18O3/c1-17(2,3)12-8-10-13(11-9-12)20-16(19)14-6-4-5-7-15(14)18/h4-11,18H,1-3H3",DBOSBRHMHBENLP-UHFFFAOYSA-N,4-tert-butylphenyl salicylate,2.222593591
,,13.83677181,0,0,10,825,0.446129932,0.847393736,1.434425328,C_{10}H_{12}N_{2},"InChI=1S/C10H12N2/c1-12(2)10(8-11)9-6-4-3-5-7-9/h3-7,10H,1-2H3",PAGHXXKYFBGJEH-UHFFFAOYSA-N,"acetonitrile, (dimethylamino)phenyl-",3.310954991
,,14.11991522,0,0,10,717,0.676103081,0.922242325,1.682560327,C_{8}H_{8}Cl_{2},"InChI=1S/C8H8Cl2/c1-2-6-3-4-7(9)8(10)5-6/h3-5H,2H2,1H3",LAGWZWJDSQHXQZ-UHFFFAOYSA-N,"3,4-dichloroethylbenzene",4.287452938
,,14.31880303,0,0,10,594,0.675024007,0.920728535,1.696488918,C_{5}H_{7}N,"InChI=1S/C5H7N/c1-3-5(2)4-6/h3H,1-2H3/b5-3-",IHXNSHZBFXGOJM-HYXAFXHYSA-N,"2-butenenitrile, 2-methyl-, (2Z)-",4.900552566
,,16.14364982,0,0,10,793,0.838790197,0.890771771,2.001935732,C_{16}H_{14},"InChI=1S/C16H14/c1-2-8-13-12(7-1)14-9-3-5-11-6-4-10-15(13)16(11)14/h1-3,7-9H,4-6,10H2",HWEWZSACZIURKQ-UHFFFAOYSA-N,"1,2,3,4-tetrahydrofluoranthene",2.988221689
,0.041516164,16.48655432,0,1,10,735,1.069147929,0.678254318,1.313956478,C_{15}H_{26}O_{6},"InChI=1S/C15H26O6/c1-4-7-13(16)19-10-12(21-15(18)9-6-3)11-20-14(17)8-5-2/h12H,4-11H2,1-3H3",UYXTWWCETRIEDR-UHFFFAOYSA-N,"1,2,3-propanetriyl tributanoate",1.204243352
,0.21540465,17.01241685,0,1,10,585,0.108512727,0.834122413,2.811511606,C_{7}H_{12},"InChI=1S/C7H12/c1-2-7-5-3-4-6-7/h2H,3-6H2,1H3",VONKRKBGTZDZNV-UHFFFAOYSA-N,ethylidenecyclopentane,3.769952052
,4.890368121,20.16668767,0,3,10,664,0.576574934,0.923697906,1.669230681,C_{6}H_{9}N,"InChI=1S/C6H9N/c7-5-6-3-1-2-4-6/h6H,1-4H2",SVPZJHKVRMRREG-UHFFFAOYSA-N,1-cyanocyclopentane,5.201603029
,1.811104065,23.31547816,0,4,10,600,0,0.396259914,0.570818358,C_{6}H_{8},"InChI=1S/C6H8/c1-3-4(1)6-2-5(3)6/h3-6H,1-2H2/t3-,4+,5+,6-",CKOTZHFYKVFQTO-GUCUJZIJSA-N,"(1.alpha.,2.beta.,4.beta.,5.alpha.)-tricyclo[3.1.0.02,4]hexane",4.374177655
,4.240085425,23.76474262,0,1,10,609,0.642695456,0.923656295,1.669647774,C_{9}H_{12},InChI=1S/C9H12/c1-2-7(1)5-9(7)6-8(9)3-4-8/h1-6H2,JCHCWAJGYWGXMQ-UHFFFAOYSA-N,trispiro[2.0.0.2.1.1]nonane,4.804674917
,,25.55341097,0,0,10,741,0.876741982,0.923949011,1.663411814,C_{10}H_{12}O_{2},"InChI=1S/C10H12O2/c1-3-4-8-5-6-9(11)10(7-8)12-2/h3-7,11H,1-2H3",BJIOGJUNALELMI-UHFFFAOYSA-N,2-methoxy-4-(1-propenyl)phenol,2.964845765
,5.879873308,26.17365331,0,1,10,599,0.683370111,0.923695259,1.669310615,C_{8}H_{14}O_{2},"InChI=1S/C8H14O2/c1-6(2)5-8(9)10-7(3)4/h5,7H,1-4H3",QQVQBUXUAZCLLZ-UHFFFAOYSA-N,"2-butenoic acid, 3-methyl-, 1-methylethyl ester",2.601775209
,,60.0649934,0,0,10,808,0.558343204,0.82962168,2.900970928,C_{24}H_{42},"InChI=1S/C24H42/c1-2-3-4-5-6-7-8-9-10-11-12-13-14-15-16-18-21-24-22-19-17-20-23-24/h17,19-20,22-23H,2-16,18,21H2,1H3",WSVDSBZMYJJMSB-UHFFFAOYSA-N,octadecylbenzene,0.982078926
,,97.39806703,0,0,10,795,1.050993668,0.607847232,1.124594707,C_{16}H_{20},"InChI=1S/C16H20/c1-2-3-4-5-8-14-11-12-15-9-6-7-10-16(15)13-14/h6-7,9-13H,2-5,8H2,1H3",ZGHJVWFEQWVPTB-UHFFFAOYSA-N,2-hexylnaphthalene,2.089814004
,,116.7634433,0,0,10,839.2572215,0,0.416413514,1.771946177,C_{26}H_{50},"InChI=1S/C26H50/c1-4-5-6-7-8-9-10-11-12-13-26(24-18-14-22(2)15-19-24)25-20-16-23(3)17-21-25/h22-26H,4-21H2,1-3H3",ARDIJKGJYOGVEO-UHFFFAOYSA-N,"1,1-bis(4-methylcyclohexyl)dodecane",0.926993877