AAD_Csat,AAD_hfg,AAD_psat,N_Csat,N_hfg,N_psat,Tc_K,c0,c1,c2,formula,inchi,inchikey,name,pc_MPa
,,3.198575111,0,0,38,540,0.276327719,0.819439999,3.119740749,C_{3}H_{4}F_{4}O,"InChI=1S/C3H4F4O/c4-2(5)3(6,7)1-8/h2,8H,1H2",NBUKAOOFKZFCGD-UHFFFAOYSA-N,"2,2,3,3-tetrafluoro-1-propanol",3.716977927
0.090431829,0.69411862,3.446165357,16,1,38,750,0.751541971,0.810806882,1.555238396,C_{16}H_{32},"InChI=1S/C16H32/c1-2-3-4-5-6-7-8-10-13-16-14-11-9-12-15-16/h16H,2-15H2,1H3",STWFZICHPLEOIC-UHFFFAOYSA-N,decylcyclohexane,1.551567145
,0.850908865,4.5036826,0,5,38,559.9499686,0.20997843,0.850517516,2.540889762,C_{6}H_{14}O,"InChI=1S/C6H14O/c1-3-5-6-7-4-2/h3-6H2,1-2H3",PZHIWRCQKBBTOW-UHFFFAOYSA-N,butyl ethyl ether,4.406350131
0.105854366,,4.795303895,22,0,38,647,0.381470814,0.78959697,1.413793984,C_{8}H_{8},"InChI=1S/C8H8/c1-2-4-6-8-7-5-3-1/h1-8H/b2-1-,3-1-,4-2-,5-3-,6-4-,7-5-,8-6-,8-7-",KDUIUFJBNGTBMD-BONZMOEMSA-N,"1,3,5,7-cyclooctatetraene",5.053575223
,,6.99776041,0,0,38,692.3,0.919967312,0.772096075,1.252601312,C_{8}H_{18}O_{3},"InChI=1S/C8H18O3/c1-2-3-5-10-7-8-11-6-4-9/h9H,2-8H2,1H3",OAYXUHPQHDHDDZ-UHFFFAOYSA-N,"3,6-dioxa-1-decanol",2.796243183
,,7.866652583,0,0,38,655,0.310728201,0.821759173,3.056997094,C_{7}H_{12}O_{3},"InChI=1S/C7H12O3/c1-3-10-7(9)5-4-6(2)8/h3-5H2,1-2H3",GMEONFUTDYJSNV-UHFFFAOYSA-N,ethyl levulinate,3.009465684
,8.498072466,9.928156686,0,1,38,609.3,0.154738721,0.813464998,3.256841077,C_{10}H_{22}O,"InChI=1S/C10H22O/c1-9(2)5-7-11-8-6-10(3)4/h9-10H,5-8H2,1-4H3",AQZGPSLYZOOYQP-UHFFFAOYSA-N,di-(3-methylbutyl) ether,2.068425153
0.249176291,,30.33539214,36,0,38,649.1,1.590949039,0.999859213,0.530215931,C_{8}H_{18}S,"InChI=1S/C8H18S/c1-3-5-7-9-8-6-4-2/h3-8H2,1-2H3",HTIRHQRTDBPHNZ-UHFFFAOYSA-N,5-thianonane,2.402080402
,,0.515577969,0,0,37,533.1,0.432259864,0.832748954,1.380406079,C_{7}H_{14},"InChI=1S/C7H14/c1-6(2)7(3,4)5/h1H2,2-5H3",AUYRUAVCWOAHQN-UHFFFAOYSA-N,"2,3,3-trimethyl-1-butene",3.337970756
,,0.575908843,0,0,37,766,0.623342872,0.826898045,1.542994722,C_{8}H_{9}NO_{2},"InChI=1S/C8H9NO2/c1-11-8(10)6-4-2-3-5-7(6)9/h2-5H,9H2,1H3",VAMXMNNIEUEQDV-UHFFFAOYSA-N,methyl 2-aminobenzoate,3.837797664
,,0.654153278,0,0,37,689,0.391807289,0.814938716,1.912319445,C_{6}H_{3}F_{2}NO_{2},InChI=1S/C6H3F2NO2/c7-5-2-1-4(9(10)11)3-6(5)8/h1-3H,RUBQQRMAWLSCCJ-UHFFFAOYSA-N,"3,4-difluoronitrobenzene",3.603067998
,,1.152972055,0,0,37,421.83374,1.526420277,0.999500107,0.602097806,C_{5}F_{12},"InChI=1S/C5F12/c6-1(7,2(8,9)4(12,13)14)3(10,11)5(15,16)17",NJCBUSHGCBERSK-UHFFFAOYSA-N,perfluoropentane,2.039219448
,,1.474415591,0,0,37,502.1,0.866212246,0.946900778,0.842952523,C_{6}H_{10},"InChI=1S/C6H10/c1-3-5-6-4-2/h3-4H,1-2,5-6H2",PYGSKMBEVAICCR-UHFFFAOYSA-N,"1,5-hexadiene",3.219518037
,0.028097836,1.678690567,0,38,37,726,0.584145183,0.761966928,1.700812218,C_{9}H_{22}N_{2},InChI=1S/C9H22N2/c10-8-6-4-2-1-3-5-7-9-11/h1-11H2,SXJVFQLYZSNZBT-UHFFFAOYSA-N,"1,9-diaminononane",2.628092906
,,1.959553537,0,0,37,559.6,0.715765853,0.791174893,1.509949185,C_{5}H_{12}O,"InChI=1S/C5H12O/c1-5(2,3)4-6/h6H,4H2,1-3H3",KPSSIOMAKSHJJG-UHFFFAOYSA-N,"2,2-dimethyl-1-propanol",4.88136772
,0.380908907,2.265389203,0,1,37,660.4,1.211202638,0.999999985,0.718133386,C_{10}H_{16},"InChI=1S/C10H16/c1-8(2)10-6-4-9(3)5-7-10/h4,10H,1,5-7H2,2-3H3/t10-/m1/s1",XMGQYMWWDOXHJM-SNVBAGLBSA-N,(S)-1-methyl-4-(1-methylethenyl)cyclohexene,3.044434566
,,2.634782774,0,0,37,752,0.320598468,0.820951225,3.088234034,C_{16}H_{26},"InChI=1S/C16H26/c1-2-3-4-5-6-7-8-10-13-16-14-11-9-12-15-16/h9,11-12,14-15H,2-8,10,13H2,1H3",UZILCZKGXMQEQR-UHFFFAOYSA-N,1-phenyldecane,1.724055471
,,3.148595558,0,0,37,767,0.666104187,0.780624167,1.027549503,C_{11}H_{12},"InChI=1S/C11H12/c1-9-5-4-7-10-6-2-3-8-11(9)10/h2-3,6,8H,1,4-5,7H2",AUIURIPXSQBMJD-UHFFFAOYSA-N,"1-methylene-1,2,3,4-tetrahydronaphthalene",3.703430494
,,3.194727163,0,0,37,613,0.723968826,0.836044944,1.164040235,C_{7}H_{7}F,"InChI=1S/C7H7F/c8-6-7-4-2-1-3-5-7/h1-5H,6H2",MBXXQYJBFRRFCK-UHFFFAOYSA-N,(fluoromethyl)benzene,4.01405074
0.679618696,,3.308925612,22,0,37,462.4,1.072694192,0.901178392,0.618115716,C_{5}H_{8},"InChI=1S/C5H8/c1-3-5-4-2/h3-4H,1-2,5H2",QYZLKGVUSQXAMU-UHFFFAOYSA-N,"1,4-pentadiene",3.858784973
,,4.915011015,0,0,37,759,0.698887099,0.891078921,1.998449533,C_{10}H_{10}O_{4},"InChI=1S/C10H10O4/c1-13-9(11)7-3-5-8(6-4-7)10(12)14-2/h3-6H,1-2H3",WOZVHXUHUFLZGK-UHFFFAOYSA-N,"dimethyl 1,4-benzenedicarboxylate",3.394252854
,1.276552821,6.072095354,0,1,37,576,0.142683073,0.846558434,2.605184931,C_{7}H_{12},"InChI=1S/C7H12/c1-7-5-3-2-4-6-7/h2-3,7H,4-6H2,1H3",FSWCCQWDVGZMRD-UHFFFAOYSA-N,4-methylcyclohexene,3.634113725
,1.266083369,6.724434231,0,1,37,601.926,1.371447682,0.999370507,0.673270453,C_{8}H_{16}O_{2},"InChI=1S/C8H16O2/c1-6(2)5-10-8(9)7(3)4/h6-7H,5H2,1-4H3",RXGUIWHIADMCFC-UHFFFAOYSA-N,2-methylpropyl 2-methylpropanoate,2.526471215
,,8.715744401,0,0,37,749,1.16853634,0.981892765,1.030206816,C_{9}H_{10}O_{2},"InChI=1S/C9H10O2/c1-7(10)8-3-5-9(11-2)6-4-8/h3-6H,1-2H3",NTPLXRHDUXRPNE-UHFFFAOYSA-N,4'-methoxyacetophenone,3.129939784
,0.409613975,9.743062785,0,1,37,600.1,0.506348087,0.865494618,2.316976281,C_{7}H_{17}N,"InChI=1S/C7H17N/c1-2-3-4-5-6-7-8/h2-8H2,1H3",WJYIASZWHGOTOU-UHFFFAOYSA-N,1-heptanamine,3.461928853
0.15408671,,11.24424343,15,0,37,749,0.464292288,0.852697588,2.116147913,C_{12}H_{12},"InChI=1S/C12H12/c1-9-3-5-12-8-10(2)4-6-11(12)7-9/h3-8H,1-2H3",YGYNBBAUIYTWBF-UHFFFAOYSA-N,"2,6-dimethylnaphthalene",2.896429305
,,13.11930113,0,0,37,670,1.547251004,0.999424208,0.703261516,C_{6}H_{14}O_{3},"InChI=1S/C6H14O3/c1-2-8-5-6-9-4-3-7/h7H,2-6H2,1H3",XXJWXESWEXIICW-UHFFFAOYSA-N,"3,6-dioxa-1-octanol",3.167
,,18.14602866,0,0,37,666,0.075788185,0.5345784,1.363435277,C_{9}H_{10},"InChI=1S/C9H10/c1-3-9-6-4-5-8(2)7-9/h3-7H,1H2,2H3",JZHGRUMIRATHIU-UHFFFAOYSA-N,1-ethenyl-3-methylbenzene,3.744406536
,0.951483706,21.70210199,0,1,37,746,0.336848998,0.746195991,2.029973009,C_{7}H_{8}O_{2},"InChI=1S/C7H8O2/c1-9-7-4-2-3-6(8)5-7/h2-5,8H,1H3",ASHGTJPOSUFTGB-UHFFFAOYSA-N,3-methoxyphenol,4.401982016
1.298098351,,24.99040603,95,0,37,505,1.080531902,0.99999996,0.666468169,C_{5}H_{8},InChI=1S/C5H8/c1-5-3-2-4-5/h1-4H2,QIRVGKYPAOQVNP-UHFFFAOYSA-N,exo-methylenecyclobutane,4.600431995
1.207105258,8.606930463,121.7224124,69,3,37,682.1490004,1.46021045,0.955988858,0.592923178,C_{10}H_{18}O_{2},"InChI=1S/C10H18O2/c1-2-6-10(11)12-9-7-4-3-5-8-9/h9H,2-8H2,1H3",VZHUBBUZNIULNM-UHFFFAOYSA-N,cyclohexyl butanoate,2.319982166
,,0.094720815,0,0,36,744,0.454158106,0.815659454,1.561861214,C_{9}H_{11}N,"InChI=1S/C9H11N/c1-2-6-9-8(4-1)5-3-7-10-9/h3,5,7H,1-2,4,6H2",YQDGQEKUTLYWJU-UHFFFAOYSA-N,"5,6,7,8-tetrahydroquinoline",3.824631223
,,0.159133711,0,0,36,308.6080793,0.722961811,0.957785444,0.910352846,C_{2}H_{2},InChI=1S/C2H2/c1-2/h1-2H,HSFWRNGVRCDJHI-UHFFFAOYSA-N,ethyne,6.287173301
,,0.162911851,0,0,36,761,1.208584013,0.999983852,0.959788424,C_{8}H_{3}FO_{3},InChI=1S/C8H3FO3/c9-4-1-2-5-6(3-4)8(11)12-7(5)10/h1-3H,XVMKZAAFVWXIII-UHFFFAOYSA-N,"5-fluoro-1,3-isobenzofurandione",3.539902331
,,0.165987001,0,0,36,763,0.22992224,0.819305393,3.125934621,C_{6}H_{3}Cl_{2}NO_{2},InChI=1S/C6H3Cl2NO2/c7-4-2-1-3-5(6(4)8)9(10)11/h1-3H,CMVQZRLQEOAYSW-UHFFFAOYSA-N,"1,2-dichloro-3-nitrobenzene",3.812619797
,,0.361574151,0,0,36,431,0.908153125,0.999322819,0.833488023,C_{3}H_{3}ClF_{4},"InChI=1S/C3H3ClF4/c1-2(4,5)3(6,7)8/h1H3",SMCNZLDHTZESTK-UHFFFAOYSA-N,"2-chloro-1,1,1,2-tetrafluoropropane",3.14552007
,,0.432509307,0,0,36,740,1.242175904,0.999896616,0.988053946,C_{4}H_{9}NO,"InChI=1S/C4H9NO/c1-2-3-4(5)6/h2-3H2,1H3,(H2,5,6)",DNSISZSEWVHGLH-UHFFFAOYSA-N,butanamide,6.017697565
,,0.880887354,0,0,36,518.0822769,0.738996262,0.999739923,0.875444992,C_{3}H_{7}NO_{2},"InChI=1S/C3H7NO2/c1-2-3-6-4-5/h2-3H2,1H3",KAOQVXHBVNKNHA-UHFFFAOYSA-N,propyl nitrite,4.680047366
,,0.975919921,0,0,36,638,0.720241543,0.886688083,2.048811411,C_{4}H_{6}O_{2},"InChI=1S/C4H6O2/c1-2-3-4(5)6/h2-3H,1H3,(H,5,6)",LDHQCZJRKDOVOX-UHFFFAOYSA-N,2-butenoic acid,4.762932895
,,1.066584505,0,0,36,625.1,0.632797549,0.782399694,1.225438252,C_{4}H_{9}NO_{2},"InChI=1S/C4H9NO2/c1-2-3-4-5(6)7/h2-4H2,1H3",NALZTFARIYUCBY-UHFFFAOYSA-N,1-nitrobutane,3.30662338
0.053760545,0.919222056,1.474524064,13,1,36,503.2680226,0.269317035,0.829835604,1.775754965,C_{3}H_{7}Cl,"InChI=1S/C3H7Cl/c1-2-3-4/h2-3H2,1H3",SNMVRZFUUCLYTO-UHFFFAOYSA-N,1-chloropropane,4.566760909
,,1.888470721,0,0,36,606.6,1.026946472,0.999953934,0.958712325,C_{7}H_{14}O,"InChI=1S/C7H14O/c1-3-5-6-7(8)4-2/h3-6H2,1-2H3",NGAZZOYFWWSOGK-UHFFFAOYSA-N,3-heptanone,2.98188432
1.218885035,0.317821659,2.019071976,34,4,36,599,0.244554667,0.845244378,2.621092347,C_{6}H_{13}Cl,"InChI=1S/C6H13Cl/c1-2-3-4-5-6-7/h2-6H2,1H3",MLRVZFYXUZQSRU-UHFFFAOYSA-N,1-chlorohexane,3.289359893
,0.078276631,2.377056666,0,1,36,437.6606164,0.028244958,0.793295405,3.727893403,C_{4}H_{3}F_{7}O,"InChI=1S/C4H3F7O/c1-12-4(10,11)2(5,6)3(7,8)9/h1H3",NOPJRYAFUXTDLX-UHFFFAOYSA-N,heptafluoropropyl methyl ether,2.477667045
,,2.501535791,0,0,36,792,0.968619211,0.954035004,1.307671521,C_{12}H_{10}O,"InChI=1S/C12H10O/c13-12-9-5-4-8-11(12)10-6-2-1-3-7-10/h1-9,13H",LLEMOWNGBBNAJR-UHFFFAOYSA-N,"2-hydroxy-1,1'-biphenyl",4.542737146
,0.709299005,2.668990416,0,1,36,528,0.475996134,0.934817465,1.511826409,C_{3}H_{4}O,"InChI=1S/C3H4O/c1-2-3-4/h2-3H,1H2",HGINCPLSRVDWNT-UHFFFAOYSA-N,2-propenal,6.298006246
0.290098393,0.294124179,2.767650284,39,3,36,570.1,0.846090213,0.845141834,0.82010588,C_{4}H_{10}S,"InChI=1S/C4H10S/c1-2-3-4-5/h5H,2-4H2,1H3",WQAQPCDUOCURKW-UHFFFAOYSA-N,1-butanethiol,3.946816703
0.056146212,,3.418971318,32,0,36,647.5,0.698186614,0.808668082,1.191466528,C_{7}H_{16}S,"InChI=1S/C7H16S/c1-2-3-4-5-6-7-8/h8H,2-7H2,1H3",VPIAKHNXCOTPAY-UHFFFAOYSA-N,1-heptanethiol,2.778524962
0.282905195,1.032995701,3.891729786,11,1,36,772,0.42055387,0.819683895,1.907919488,C_{13}H_{12},"InChI=1S/C13H12/c1-11-7-5-6-10-13(11)12-8-3-2-4-9-12/h2-10H,1H3",ALLIZEAXNXSFGD-UHFFFAOYSA-N,2-methylbiphenyl,3.570290794
0.063193744,0.787054619,4.840593333,41,4,36,631.9,0.712097518,0.79766678,1.353769274,C_{11}H_{24},"InChI=1S/C11H24/c1-4-5-6-7-8-9-10-11(2)3/h11H,4-10H2,1-3H3",CNPVJWYWYZMPDS-UHFFFAOYSA-N,2-methyldecane,1.987382213
,0.290529525,6.021720899,0,2,36,739,0.614643064,0.822756589,3.051101177,C_{19}H_{36}O_{2},"InChI=1S/C19H36O2/c1-3-4-5-6-7-8-9-10-11-12-13-14-15-16-17-18-19(20)21-2/h10-11H,3-9,12-18H2,1-2H3/b11-10-",QYDYPVFESGNLHU-KHPPLWFESA-N,methyl cis-9-octadecenoate,1.218791676
,,8.482995296,0,0,36,684,0.655054834,0.882633825,2.09588608,C_{9}H_{16}O_{3},"InChI=1S/C9H16O3/c1-3-4-7-12-9(11)6-5-8(2)10/h3-7H2,1-2H3",ISBWNEKJSSLXOD-UHFFFAOYSA-N,butyl levulinate,2.488690536
,,9.33166732,0,0,36,655.5518923,1.799531313,0.999789623,0.5691672,C_{8}H_{14}O_{3},"InChI=1S/C8H14O3/c1-3-9-5-7-11-8-6-10-4-2/h3-4H,1-2,5-8H2",SAMJGBVVQUEMGC-UHFFFAOYSA-N,bis(2-vinyloxyethyl) ether,2.7537422
,,13.09827249,0,0,36,662,1.581137388,0.96993492,0.866101029,C_{4}H_{9}NO,"InChI=1S/C4H9NO/c1-3-4(6)5-2/h3H2,1-2H3,(H,5,6)",QJQAMHYHNCADNR-UHFFFAOYSA-N,N-methylpropanamide,4.431288774
1.770067278,5.17050613,13.79057556,36,3,36,498.3213844,1.850218635,0.999902117,0.417171726,C_{3}H_{9}N,"InChI=1S/C3H9N/c1-2-3-4/h2-4H2,1H3",WGYKZJWCGVVSQN-UHFFFAOYSA-N,propan-1-amine,4.764848118
,,15.4383974,0,0,36,698,0,0.171377181,0.845666486,C_{6}H_{12}O_{2},"InChI=1S/C6H12O2/c1-4-6(2,3)5(7)8/h4H2,1-3H3,(H,7,8)",VUAXHMVRKOTJKP-UHFFFAOYSA-N,"2,2-dimethylbutanoic acid",3.249991851
0.717024073,13.99250494,252.6219734,70,2,36,693,1.321301163,0.900446358,0.635615349,C_{11}H_{20}O_{2},"InChI=1S/C11H20O2/c1-2-3-9-11(12)13-10-7-5-4-6-8-10/h10H,2-9H2,1H3",YLCHTSSXNSNXSW-UHFFFAOYSA-N,"pentanoic acid, cyclohexyl ester",1.441355274
,,0.076969437,0,0,35,786,0.51239987,0.786510736,1.411687696,C_{9}H_{11}N,"InChI=1S/C9H11N/c1-2-6-9-8(4-1)5-3-7-10-9/h1-2,4,6,10H,3,5,7H2",LBUJPTNKIBCYBY-UHFFFAOYSA-N,"1,2,3,4-tetrahydroquinoline",4.115791673
,,0.141697173,0,0,35,707,0.320309736,0.817377187,1.953017067,C_{8}H_{8}O,"InChI=1S/C8H8O/c1-2-4-8-6-9-5-7(8)3-1/h1-4H,5-6H2",SFLGSKRGOWRGBR-UHFFFAOYSA-N,"1,3-dihydroisobenzofuran",4.372497369
,,0.153753476,0,0,35,880,0.546308192,0.827511267,1.606896342,C_{13}H_{9}N,InChI=1S/C13H9N/c1-2-6-12-10(4-1)7-8-11-5-3-9-14-13(11)12/h1-9H,WZJYKHNJTSNBHV-UHFFFAOYSA-N,benzo[h]quinoline,2.902484625
,,0.243626048,0,0,35,599,0.553664255,0.834723704,1.256866867,C_{8}H_{16},"InChI=1S/C8H16/c1-3-8-6-4-5-7(8)2/h7-8H,3-6H2,1-2H3/t7-,8+/m0/s1",BSKOLJVTLRLTHE-JGVFFNPUSA-N,1-ethyl-cis-2-methylcyclopentane,3.185864906
,0.024434168,1.11323758,0,1,35,608.5355027,0.262440611,0.825347038,2.996836879,C_{6}H_{12}O_{3},"InChI=1S/C6H12O3/c1-3-8-4-5-9-6(2)7/h3-5H2,1-2H3",SVONRAPFKPVNKG-UHFFFAOYSA-N,2-ethoxyethyl ethanoate,3.168110408
,,1.912129659,0,0,35,695,0.736138253,0.868476045,2.277381429,C_{12}H_{22}O_{4},"InChI=1S/C12H22O4/c1-3-5-9-15-11(13)7-8-12(14)16-10-6-4-2/h3-10H2,1-2H3",YUXIBTJKHLUKBD-UHFFFAOYSA-N,"butanedioic acid, dibutyl ester",1.795461074
0.076606667,,2.318507362,27,0,35,775,0.479463382,0.840586159,1.755743522,C_{12}H_{12},"InChI=1S/C12H12/c1-9-3-5-11-6-4-10(2)8-12(11)7-9/h3-8H,1-2H3",LRQYSMQNJLZKPS-UHFFFAOYSA-N,"2,7-dimethylnaphthalene",3.010235669
,0.00489583,2.603068092,0,1,35,746,0.726450197,0.795165327,1.497284218,C_{12}H_{23}N,"InChI=1S/C12H23N/c1-2-3-4-5-6-7-8-9-10-11-12-13/h2-11H2,1H3",VXCUURYYWGCLIH-UHFFFAOYSA-N,n-dodecanenitrile,2.166730461
,0.253983784,2.827775775,0,1,35,569.2,1.031131009,0.999968077,0.910734409,C_{6}H_{12}O,"InChI=1S/C6H12O/c1-4-6(7)5(2)3/h5H,4H2,1-3H3",HYTRYEXINDDXJK-UHFFFAOYSA-N,2-methyl-3-pentanone,3.398433291
,0.443457699,2.868751124,0,1,35,566.3,0.147677883,0.821992602,3.066737096,C_{8}H_{16},"InChI=1S/C8H16/c1-3-5-7-8-6-4-2/h7-8H,3-6H2,1-2H3/b8-7+",IRUCBBFNLDIMIK-BQYQJAHWSA-N,(E)-4-octene,2.591395081
,,3.107253606,0,0,35,558,0.189255637,0.805277992,3.383983379,C_{6}H_{14}O,"InChI=1S/C6H14O/c1-5(2)6(3,4)7/h5,7H,1-4H3",IKECULIHBUCAKR-UHFFFAOYSA-N,"2,3-dimethyl-2-butanol",3.646998645
0.176950198,0.793809285,3.433398574,18,4,35,610,0.745139616,0.826635923,0.878281078,C_{5}H_{6}S,"InChI=1S/C5H6S/c1-5-2-3-6-4-5/h2-4H,1H3",QENGPZGAWFQWCZ-UHFFFAOYSA-N,3-methylthiophene,4.877032953
,,3.450733218,0,0,35,557,1.329001033,0.974438345,0.704327017,C_{6}H_{12}O_{2},"InChI=1S/C6H12O2/c1-4-5(2)8-6(3)7/h5H,4H2,1-3H3",DCKVNWZUADLDEH-UHFFFAOYSA-N,1-methylpropyl ethanoate,3.151551736
,,3.739911739,0,0,35,647.9562,2.09135015,0.651248138,0.608053779,C_{9}H_{20}O,"InChI=1S/C9H20O/c1-3-5-6-7-8-9(10)4-2/h9-10H,3-8H2,1-2H3",GYSCXPVAKHVAAY-UHFFFAOYSA-N,3-nonanol,2.515267021
0.484870584,3.095171624,4.608958403,6,1,35,894,1.388846142,0.999986773,0.649239763,C_{14}H_{10},InChI=1S/C14H10/c1-2-6-12-10-14-8-4-3-7-13(14)9-11(12)5-1/h1-10H,MWPLVEDNUUSJAV-UHFFFAOYSA-N,anthracene,3.185645031
,0.040556989,5.123574393,0,1,35,730,1.586648659,0.998806471,0.640865032,C_{10}H_{14}O,"InChI=1S/C10H14O/c1-7(2)9-5-4-8(3)10(11)6-9/h4-7,11H,1-3H3",RECUKUPTGUEGMW-UHFFFAOYSA-N,2-methyl-5-(1-methylethyl)phenol,2.992839981
0.456147548,1.322933044,5.718166292,22,3,35,552,1.399161694,0.999851849,0.492516578,C_{7}H_{14},"InChI=1S/C7H14/c1-6-3-4-7(2)5-6/h6-7H,3-5H2,1-2H3/t6-,7+",XAZKFISIRYLAEE-KNVOCYPGSA-N,"1,cis-3-dimethylcyclopentane",3.401823562
,0.773913168,5.968668988,0,7,35,559.461,0.081346188,0.78888959,3.914436341,C_{6}H_{14}O,"InChI=1S/C6H14O/c1-4-5-6(2,3)7/h7H,4-5H2,1-3H3",WFRBDWRZVBPBDO-UHFFFAOYSA-N,2-methyl-2-pentanol,3.53043079
0.286079,0.853719812,6.955312088,40,3,35,572,0.79995743,0.80892518,0.803069409,C_{5}H_{12}S,"InChI=1S/C5H12S/c1-5(2,3)6-4/h1-4H3",CJFVCTVYZFTORU-UHFFFAOYSA-N,"3,3-dimethyl-2-thiabutane",3.840840897
,,0.056539438,0,0,34,699,0.302856498,0.816211929,2.000308054,C_{7}H_{5}NO,InChI=1S/C7H5NO/c1-2-4-7-6(3-1)8-5-9-7/h1-5H,BCMCBBGGLRIHSE-UHFFFAOYSA-N,benzoxazole,4.558176037
,,0.08180204,0,0,34,735,0.331231173,0.814466393,1.923556581,C_{9}H_{10}O,"InChI=1S/C9H10O/c1-2-4-9-7-10-6-5-8(9)3-1/h1-4H,5-7H2",HEBMCVBCEDMUOF-UHFFFAOYSA-N,"1H-2-benzopyran, 3,4-dihydro-",3.951622253
,,0.269068097,0,0,34,550,0.230117324,0.828065291,2.503203185,C_{7}H_{4}F_{4},"InChI=1S/C7H4F4/c8-6-3-1-2-5(4-6)7(9,10)11/h1-4H",GBOWGKOVMBDPJF-UHFFFAOYSA-N,1-fluoro-3-(trifluoromethyl)benzene,3.231357261
,,0.311389836,0,0,34,659,0.294588423,0.814187883,2.213452994,C_{10}H_{14},"InChI=1S/C10H14/c1-3-9-7-5-6-8-10(9)4-2/h5-8H,3-4H2,1-2H3",KVNYFPKFSJIPBJ-UHFFFAOYSA-N,"1,2-diethylbenzene",2.826247436
,0.200678647,0.400573571,0,4,34,474.99,0.20318126,0.827485886,2.953455262,C_{3}H_{2}ClF_{5}O,"InChI=1S/C3H2ClF5O/c4-1(5)3(8,9)10-2(6)7/h1-2H",JPGQOUSTVILISH-UHFFFAOYSA-N,"2-chloro-1,1,2-trifluoroethyl difluoromethyl ether",2.980587334
,,0.409912854,0,0,34,406.8204574,0.363778542,0.786847612,1.733010309,C_{3}H_{3}F_{5}O,"InChI=1S/C3H3F5O/c1-9-3(7,8)2(4,5)6/h1H3",GCDWNCOAODIANN-UHFFFAOYSA-N,methyl pentafluoroethyl ether,2.885974074
,,1.207705912,0,0,34,730,1.221599536,0.995761866,0.704481954,C_{9}H_{10}O,"InChI=1S/C9H10O/c1-2-6-9-8(4-1)5-3-7-10-9/h1-2,4,6H,3,5,7H2",VZWXIQHBIQLMPN-UHFFFAOYSA-N,"3,4-dihydro-2H-1-benzopyran",3.79493299
,,1.220120476,0,0,34,565.3,0.31073502,0.84140493,2.692441125,C_{7}H_{14}O_{2},"InChI=1S/C7H14O2/c1-7(2,3)5-6(8)9-4/h5H2,1-4H3",DXBOTVWRXLQVMG-UHFFFAOYSA-N,"methyl 3,3-dimethylbutanoate",2.861043573
0.13231018,,1.742281322,17,0,34,487.2,0.737723309,0.83719579,0.873423187,C_{5}H_{8},"InChI=1S/C5H8/c1-3-5-4-2/h3-5H,1H2,2H3/b5-4+",PMJHHCWVYXUKFD-SNAWJCMRSA-N,"(E)-1,3-pentadiene",3.920992806
,0.009907894,2.293474852,0,1,34,578,0.384716504,0.849617252,1.60916264,C_{7}H_{12},InChI=1S/C7H12/c1-7-5-3-2-4-6-7/h1-6H2,YULMNMJFAZWLLN-UHFFFAOYSA-N,methylenecyclohexane,3.92752318
0.234094729,,2.378595503,46,0,34,473.8,1.043183468,0.945285479,0.669839814,C_{5}H_{10},"InChI=1S/C5H10/c1-3-5-4-2/h3,5H,4H2,1-2H3/b5-3+",QMMOXUPEWRXHJS-HWKANZROSA-N,(E)-2-pentene,3.638524897
,,2.930061996,0,0,34,652,1.429546813,0.989225023,0.527017995,C_{9}H_{10},"InChI=1S/C9H10/c1-2-6-9-7-4-3-5-8-9/h2-5,7-8H,1,6H2",HJWLCRVIBGQPNF-UHFFFAOYSA-N,2-propenylbenzene,3.713478465
,,3.042556971,0,0,34,734,1.185927808,0.912822303,0.821561842,C_{10}H_{12}O,"InChI=1S/C10H12O/c1-3-4-9-5-7-10(11-2)8-6-9/h3-8H,1-2H3/b4-3+",RUVINXPYWBROJD-ONEGZZNKSA-N,(E)-1-(4-methoxyphenyl)propene,3.017291239
,,3.512413517,0,0,34,748,0.218000747,0.793718921,3.789074802,C_{18}H_{36},"InChI=1S/C18H36/c1-3-5-7-9-11-13-15-17-18-16-14-12-10-8-6-4-2/h3H,1,4-18H2,2H3",CCCMONHAUSKTEQ-UHFFFAOYSA-N,1-octadecene,1.293024177
,,4.12853008,0,0,34,711,1.493120862,0.999912676,0.986393448,C_{11}H_{20}O_{4},"InChI=1S/C11H20O4/c1-14-10(12)8-6-4-3-5-7-9-11(13)15-2/h3-9H2,1-2H3",DRUKNYVQGHETPO-UHFFFAOYSA-N,dimethyl nonanedioate,1.950954563
,,5.441990056,0,0,34,789,0.7546503,0.944055825,1.404969042,C_{10}H_{9}N,"InChI=1S/C10H9N/c1-8-4-5-10-9(7-8)3-2-6-11-10/h2-7H,1H3",LUYISICIYVKBTA-UHFFFAOYSA-N,6-methylquinoline,4.136210871
,,6.436377338,0,0,34,645.1836,0.369263291,0.859207727,2.401191969,C_{10}H_{18},"InChI=1S/C10H18/c1-2-6-10-8-4-3-7-9(10)5-1/h9-10H,1-8H2",NNBZCPXTIHJBJL-UHFFFAOYSA-N,decahydronaphthalene,2.163361775
,,6.559849912,0,0,34,611,0.60442473,0.831210052,2.009463485,C_{6}H_{12}O,"InChI=1S/C6H12O/c1-2-3-4-5-6-7/h4-5,7H,2-3,6H2,1H3/b5-4+",ZCHHRLHTBGRGOT-SNAWJCMRSA-N,(E)-2-hexen-1-ol,3.519838146
,0.091674171,9.6463876,0,1,34,745,0.424394881,0.859192987,2.407389911,C_{10}H_{14}N_{2},"InChI=1S/C10H14N2/c1-12-7-3-5-10(12)9-4-2-6-11-8-9/h2,4,6,8,10H,3,5,7H2,1H3/t10-/m0/s1",SNICXCGAKADSCV-JTQLQIEISA-N,(-)-3-(N-methylpyrrolidino)pyridine,3.387688271
,0.228571848,18.20317046,0,1,34,731,1.576072835,0.999530657,0.867667796,C_{5}H_{12}O_{2},"InChI=1S/C5H12O2/c6-4-2-1-3-5-7/h6-7H,1-5H2",ALQSHHUCVQOPAS-UHFFFAOYSA-N,"1,5-pentanediol",5.041435043
,,0.120447413,0,0,33,431.95,0.190875529,0.827678527,2.948410963,C_{4}H_{2}F_{8},"InChI=1S/C4H2F8/c5-1-2(6,7)3(8,9)4(10,11)12/h1H2",XALFNZSGFNPWSM-UHFFFAOYSA-N,"1,1,1,2,2,3,3,4-octafluorobutane",2.781464969
,,0.129232942,0,0,33,858,0.355844846,0.810192796,1.924692683,C_{12}H_{10}N_{2},InChI=1S/C12H10N2/c1-3-7-11(8-4-1)13-14-12-9-5-2-6-10-12/h1-10H/b14-13+,DMLAVOWQYNRWNQ-BUHFOSPRSA-N,"(E)-1,2-diphenyldiazene",4.180260724