AAD_Csat,AAD_hfg,AAD_psat,N_Csat,N_hfg,N_psat,Tc_K,c0,c1,c2,formula,inchi,inchikey,name,pc_MPa
,,4.121707616,0,0,18,736,0.753020684,0.883593732,2.085383519,C_{13}H_{24}O_{3},"InChI=1S/C13H24O3/c1-3-4-5-6-7-8-11-16-13(15)10-9-12(2)14/h3-11H2,1-2H3",NYHJFEFGDGGWSE-UHFFFAOYSA-N,n-octyl levulinate,2.075560692
,,4.237373903,0,0,18,593.3,1.347135544,0.809780396,0.657207719,C_{7}H_{14}O,"InChI=1S/C7H14O/c1-4-5-7(8)6(2)3/h6H,4-5H2,1-3H3",HIGGFWFRAWSMBR-UHFFFAOYSA-N,2-methyl-3-hexanone,3.01717933
,,4.27612555,0,0,18,626,0.971201507,0.85949922,1.374279726,C_{6}H_{12}O_{2},"InChI=1S/C6H12O2/c1-6(2,3)4-5(7)8/h4H2,1-3H3,(H,7,8)",MLMQPDHYNJCQAO-UHFFFAOYSA-N,"3,3-dimethylbutanoic acid",2.954385474
,,4.313919878,0,0,18,598,0.688469704,0.851213554,2.529943207,C_{9}H_{4}F_{16}O,"InChI=1S/C9H4F16O/c10-2(11)4(14,15)6(18,19)8(22,23)9(24,25)7(20,21)5(16,17)3(12,13)1-26/h2,26H,1H2",MSXVQELLSMPBFD-UHFFFAOYSA-N,"1H,1H,9H-hexadecafluoro-1-nonanol",1.820183693
1.055531264,,4.894506997,7,0,18,841,1.664696494,0.999940154,0.544229148,C_{7}H_{13}NO,"InChI=1S/C7H13NO/c9-7-5-3-1-2-4-6-8-7/h1-6H2,(H,8,9)",CJYXCQLOZNIMFP-UHFFFAOYSA-N,2-azacyclooctanone,4.623264204
,,5.392316706,0,0,18,616,1.445419467,0.998787504,0.707698724,C_{8}H_{18}O,"InChI=1S/C8H18O/c1-5-8(4,9)6-7(2)3/h7,9H,5-6H2,1-4H3",INMGJWCKWKKMPN-UHFFFAOYSA-N,"3,5-dimethyl-3-hexanol",3.671217795
,,5.951310764,0,0,18,640,1.260714623,0.999861004,0.834132519,C_{4}H_{6}N_{2}O,InChI=1S/C4H6N2O/c1-3-4(2)6-7-5-3/h1-2H3,JKJSZGJVBAWEFB-UHFFFAOYSA-N,dimethylfurazan,5.454597025
,,6.052424035,0,0,18,724,0.994060111,0.999824167,1.000267011,C_{7}H_{14}Br_{2},"InChI=1S/C7H14Br2/c1-2-3-4-5-7(9)6-8/h7H,2-6H2,1H3",CKVJSNYSBIZAAE-UHFFFAOYSA-N,"1,2-dibromoheptane",2.839733999
,,6.176430592,0,0,18,907,1.933008931,0.955819617,0.506048828,C_{20}H_{16},InChI=1S/C20H16/c1-4-10-17(11-5-1)16-20(18-12-6-2-7-13-18)19-14-8-3-9-15-19/h1-16H,MKYQPGPNVYRMHI-UHFFFAOYSA-N,triphenylethene,1.906204993
,1.124675573,6.742065286,0,2,18,705.8,0.404821267,0.831983199,2.789367611,C_{12}H_{25}Cl,"InChI=1S/C12H25Cl/c1-2-3-4-5-6-7-8-9-10-11-12-13/h2-12H2,1H3",YAYNEUUHHLGGAH-UHFFFAOYSA-N,1-chlorododecane,1.831510798
,,7.110798327,0,0,18,558,0.680470969,0.890769453,2.0020029,C_{7}H_{16}O,"InChI=1S/C7H16O/c1-6(2,3)7(4,5)8/h8H,1-5H3",OKXVARYIKDXAEO-UHFFFAOYSA-N,"2,3,3-trimethyl-2-butanol",3.643026191
1.280608429,3.103580614,7.165031939,15,2,18,652,1.615596377,0.99998102,0.418469757,C_{8}H_{6},"InChI=1S/C8H6/c1-2-8-6-4-3-5-7-8/h1,3-7H",UEXCJVNBTNXOEH-UHFFFAOYSA-N,1-phenylethyne,5.006307449
,,7.346207318,0,0,18,602.5,0.501425972,0.850711443,2.536700793,C_{9}H_{18}O_{2},"InChI=1S/C9H18O2/c1-3-5-6-7-8-11-9(10)4-2/h3-8H2,1-2H3",GOKKOFHHJFGZHW-UHFFFAOYSA-N,hexyl propanoate,2.291587923
,,7.349282242,0,0,18,638,0.543880554,0.624758694,1.311165855,C_{2}H_{6}OS,"InChI=1S/C2H6OS/c3-1-2-4/h3-4H,1-2H2",DGVVWUTYPXICAM-UHFFFAOYSA-N,"ethanol, 2-mercapto-",6.051965002
,,7.499756227,0,0,18,797,0.998208743,0.661764128,0.82814599,C_{14}H_{12},InChI=1S/C14H12/c1-3-7-13(8-4-1)11-12-14-9-5-2-6-10-14/h1-12H/b12-11-,PJANXHGTPQOBST-QXMHVHEDSA-N,"(Z)-1,2-diphenylethene",3.065735061
,,8.092523936,0,0,18,757,2.273774725,0.97851121,0.580322649,C_{15}H_{32}O,"InChI=1S/C15H32O/c1-2-3-4-5-6-7-8-9-10-11-12-13-14-15-16/h16H,2-15H2,1H3",REIUXOLGHVXAEO-UHFFFAOYSA-N,1-pentadecanol,1.600055285
0.112637417,1.824632468,8.483244017,31,1,18,614,0.502868856,0.816518863,1.693514078,C_{7}H_{15}Cl,"InChI=1S/C7H15Cl/c1-2-3-4-5-6-7-8/h2-7H2,1H3",DZMDPHNGKBEVRE-UHFFFAOYSA-N,1-chloroheptane,2.9129656
3.559130317,,9.213998275,6,0,18,754,1.469977515,0.999985102,0.781472554,C_{2}H_{5}NO,"InChI=1S/C2H5NO/c1-2(3)4/h1H3,(H2,3,4)",DLFVBJFMPXGRIB-UHFFFAOYSA-N,ethanamide,10.27602404
,,9.72805817,0,0,18,737,0.448298459,0.799246211,1.6641471,C_{11}H_{12},"InChI=1S/C11H12/c1-9-5-4-7-10-6-2-3-8-11(9)10/h2-3,5-6,8H,4,7H2,1H3",NACZXFJTTCJDJR-UHFFFAOYSA-N,"1,2-dihydro-4-methylnaphthalene",3.508050261
,0.84587964,10.26125027,0,18,18,708,0.417315222,0.833603659,2.833804437,C_{14}H_{26}O_{4},"InChI=1S/C14H26O4/c1-13(2,3)17-11(15)9-7-8-10-12(16)18-14(4,5)6/h7-10H2,1-6H3",QSVAYRBPFFOQMK-UHFFFAOYSA-N,di-tert-butyl adipate,1.65303738
,,10.50961395,0,0,18,631.3,1.10929241,0.983061304,1.092607094,C_{10}H_{23}N,"InChI=1S/C10H23N/c1-4-5-6-7-8-9-10-11(2)3/h4-10H2,1-3H3",UQKAOOAFEFCDGT-UHFFFAOYSA-N,"N,N-dimethyl-1-octanamine",1.996342453
1.067156793,,12.83181048,52,0,18,759,0.781186932,0.84571944,1.477280577,C_{4}H_{7}NO,"InChI=1S/C4H7NO/c6-4-2-1-3-5-4/h1-3H2,(H,5,6)",HNJBEVLQSNELDL-UHFFFAOYSA-N,2-pyrrolidinone,5.837591574
6.221289334,11.66376476,45.41981242,9,1,18,177.497024,0.678116435,0.918073853,1.721223685,NO,InChI=1S/NO/c1-2,MWUXSHHQAYIFBG-UHFFFAOYSA-N,nitrogen oxide (NO),6.646409431
,,0.019041866,0,0,17,617,0.184221077,0.836848246,2.773908601,C_{5}H_{10}Cl_{2},"InChI=1S/C5H10Cl2/c1-2-3-4-5(6)7/h5H,2-4H2,1H3",PGEVTVXEERFABN-UHFFFAOYSA-N,"1,1-dichloropentane",3.439401369
,,0.021640418,0,0,17,691.9474,0.322827999,0.809038927,2.528524149,C_{16}H_{34},"InChI=1S/C16H34/c1-13(10-14(2,3)4)11-16(8,9)12-15(5,6)7/h13H,10-12H2,1-9H3",VCLJODPNBNEBKW-UHFFFAOYSA-N,"2,2,4,4,6,8,8-heptamethylnonane",1.530927745
,,0.02294675,0,0,17,601,0.393014719,0.816365571,1.680152045,C_{6}H_{14}S,"InChI=1S/C6H14S/c1-4-6(3)7-5-2/h6H,4-5H2,1-3H3",JFNGZXUPUVUYST-UHFFFAOYSA-N,2-(ethylthio)butane,3.138357121
,,0.032303499,0,0,17,737,0.232508674,0.820910156,3.090902595,C_{9}H_{10}O_{2},"InChI=1S/C9H10O2/c1-2-4-8(5-3-1)10-6-9-7-11-9/h1-5,9H,6-7H2",FQYUMYWMJTYZTK-UHFFFAOYSA-N,(phenoxymethyl)oxirane,3.296108885
,,0.036198236,0,0,17,787,0.477365008,0.82504632,1.4655405,C_{10}H_{8},InChI=1S/C10H8/c1-2-5-9-7-4-8-10(9)6-3-1/h1-8H,CUFNKYGDVFVPHO-UHFFFAOYSA-N,"bicyclo[5.3.0]deca-2,4,6,8,10-pentaene",3.791728828
,,0.040715792,0,0,17,646,0.387852037,0.806982199,2.072101273,C_{10}H_{24}N_{4},InChI=1S/C10H24N4/c1-11(2)9(12(3)4)10(13(5)6)14(7)8/h1-8H3,CBXRMKZFYQISIV-UHFFFAOYSA-N,"ethenetetramine, octamethyl-",1.633062308
,0.00114615,0.045236583,0,1,17,528,0.265012369,0.831097583,2.039743253,C_{2}HCl_{3}F_{2},"InChI=1S/C2HCl3F2/c3-1(6)2(4,5)7/h1H",BQNSLJQRJAJITR-UHFFFAOYSA-N,"1,1,2-trichloro-1,2-difluoroethane",3.872868682
,,0.107864224,0,0,17,763,1.483499884,0.991294923,0.65381692,C_{15}H_{24}O,"InChI=1S/C15H24O/c1-10-12(14(2,3)4)8-11(16)9-13(10)15(5,6)7/h8-9,16H,1-7H3",SMNGQGWPUVVORF-UHFFFAOYSA-N,"2,6-bis(1,1-dimethylethyl)-4-methylphenol",2.340397712
,,0.123352727,0,0,17,634,0.297488913,0.822186929,1.788764251,C_{9}H_{12},"InChI=1S/C9H12/c1-2-8-5-7-3-4-9(8)6-7/h2-4,7-9H,1,5-6H2",INYHZQLKOKTDAI-UHFFFAOYSA-N,5-ethenylbicyclo[2.2.1]-2-heptene,3.860612662
,,0.133208335,0,0,17,726,0.491872751,0.815073681,1.60010801,C_{11}H_{14},"InChI=1S/C11H14/c1-8-6-7-9(2)11-5-3-4-10(8)11/h6-7H,3-5H2,1-2H3",IWHKMCQFAMHMSX-UHFFFAOYSA-N,"2,3-dihydro-4,7-dimethyl-1H-indene",2.993833566
,0.729000824,0.31282065,0,2,17,608,1.099347903,0.997018546,0.687272127,C_{4}H_{8}Cl_{2},"InChI=1S/C4H8Cl2/c1-2-4(6)3-5/h4H,2-3H2,1H3",PQBOTZNYFQWRHU-UHFFFAOYSA-N,"1,2-dichlorobutane",3.961223194
,,0.31891392,0,0,17,629.6,1.196019931,0.989065542,0.792250406,C_{8}H_{17}Cl,"InChI=1S/C8H17Cl/c1-3-5-6-8(4-2)7-9/h8H,3-7H2,1-2H3",WLVCBAMXYMWGLJ-UHFFFAOYSA-N,1-chloro-2-ethylhexane,2.340625623
,,0.366339273,0,0,17,660,0.902480632,0.932179923,1.54579853,C_{2}H_{2}Cl_{2}O_{2},"InChI=1S/C2H2Cl2O2/c3-1(4)2(5)6/h1H,(H,5,6)",JXTHNDFMNIQAHM-UHFFFAOYSA-N,"2,2-dichloroacetic acid",4.515490203
,,0.419443473,0,0,17,719,0,0.151590487,1.065910232,C_{8}H_{18}O_{2},"InChI=1S/C8H18O2/c1-6(2)7(10)8(3,4)5-9/h6-7,9-10H,5H2,1-4H3",JCTXKRPTIMZBJT-UHFFFAOYSA-N,"2,2,4-trimethyl-1,3-pentanediol",3.117669742
,,0.467478761,0,0,17,485,0.47150261,0.847315392,1.635678338,C_{4}Cl_{2}F_{8},"InChI=1S/C4Cl2F8/c5-3(11,12)1(7,8)2(9,10)4(6,13)14",LGBGVSJBKFDYKH-UHFFFAOYSA-N,"1,4-dichloroperfluorobutane",2.460252606
0.21377629,,0.535009795,23,0,17,564,0.398313469,0.790769937,1.305559195,C_{3}H_{6}Cl_{2},"InChI=1S/C3H6Cl2/c1-2-3(4)5/h3H,2H2,1H3",WIHMGGWNMISDNJ-UHFFFAOYSA-N,"1,1-dichloropropane",4.223255242
,,0.558989051,0,0,17,586.6,0.999209349,0.916262712,0.992122106,C_{7}H_{12}O_{2},"InChI=1S/C7H12O2/c1-4-7(8)9-5-6(2)3/h4,6H,1,5H2,2-3H3",CFVWNXQPGQOHRJ-UHFFFAOYSA-N,2-methylpropyl 2-propenoate,2.877528511
,,0.666087807,0,0,17,734,0.846240899,0.923296305,1.672937089,C_{12}H_{22}O_{3},"InChI=1S/C12H22O3/c1-3-4-5-6-7-10-15-12(14)9-8-11(2)13/h3-10H2,1-2H3",VOOQWFJRTDJMOR-UHFFFAOYSA-N,n-heptyl levulinate,1.803581169
,,0.723910011,0,0,17,603,0.511199088,0.886324275,1.772439073,C_{7}H_{4}ClF_{3},"InChI=1S/C7H4ClF3/c8-6-3-1-2-5(4-6)7(9,10)11/h1-4H",YTCGOUNVIAWCMG-UHFFFAOYSA-N,"benzene, 1-chloro-3-(trifluoromethyl)-",3.446465134
,,0.897429914,0,0,17,668,0.484934146,0.83522013,1.634524642,C_{8}H_{14}O_{2},InChI=1S/C8H14O2/c1-2-4-8(5-3-1)9-6-7-10-8/h1-7H2,GZGPRZYZKBQPBQ-UHFFFAOYSA-N,"1,4-dioxaspiro[4.5]decane",3.674677169
,,1.025318431,0,0,17,680,1.285196439,0.999518971,0.592178622,C_{10}H_{18},InChI=1S/C10H18/c1-2-6-10(7-3-1)8-4-5-9-10/h1-9H2,CTDQAGUNKPRERK-UHFFFAOYSA-N,spiro[5.4]decane,2.809308582
,,1.124201702,0,0,17,794,0.43963468,0.818635286,2.310689324,C_{12}H_{16}N_{2},InChI=1S/C12H16N2/c1-2-6-10-9(5-1)13-11-7-3-4-8-12(11)14-10/h1-8H2,JYYRTWNCBVRKMN-UHFFFAOYSA-N,"1,2,3,4,6,7,8,9-octahydrophenazine",2.38807652
,,1.126565402,0,0,17,638,0.537013561,0.872559303,1.813336796,C_{5}H_{6}OS,"InChI=1S/C5H6OS/c1-6-5-2-3-7-4-5/h2-4H,1H3",RFSKGCVUDQRZSD-UHFFFAOYSA-N,3-methoxythiophene,5.062330146
,0.009000502,1.161427278,0,1,17,688,2.200747499,0.765047079,0.446891167,C_{7}H_{17}N_{3},"InChI=1S/C7H17N3/c1-9-4-6-10(3-2-8)7-5-9/h2-8H2,1H3",GOWUDHPKGOIDIX-UHFFFAOYSA-N,1-(2-aminoethyl)-4-methyl-piperazine,3.25555254
,,1.366398229,0,0,17,608,0.739917395,0.925748845,1.636631113,C_{9}H_{18}O_{2},"InChI=1S/C9H18O2/c1-4-5-6-9(10)11-7-8(2)3/h8H,4-7H2,1-3H3",ADNADZOSMJDVIS-UHFFFAOYSA-N,2-methylpropyl pentanoate,2.421492592
,0.008218162,1.45089003,0,17,17,652,0.977306606,0.819733714,1.197289296,C_{9}H_{16}O_{4},"InChI=1S/C9H16O4/c1-6(2)12-8(10)5-9(11)13-7(3)4/h6-7H,5H2,1-4H3",QRVSDVDFJFKYKA-UHFFFAOYSA-N,diisopropyl malonate,2.238494455
,,1.461746094,0,0,17,724,2.901529236,0.928264576,0.410729633,C_{14}H_{30}O_{3},"InChI=1S/C14H30O3/c1-3-5-7-9-15-11-13-17-14-12-16-10-8-6-4-2/h3-14H2,1-2H3",YXOUPUFJBBFWNL-UHFFFAOYSA-N,1-(2-(2-(pentyloxy)ethoxy)ethoxy)pentane,1.464607253
,0.355403702,1.660473103,0,1,17,620.1,0,0.29404821,0.797382674,C_{6}H_{4}ClF,InChI=1S/C6H4ClF/c7-5-1-3-6(8)4-2-5/h1-4H,RJCGZNCCVKIBHO-UHFFFAOYSA-N,1-chloro-4-fluorobenzene,4.231830126
,,1.794248147,0,0,17,672,1.286716281,0.999867916,0.67316522,C_{11}H_{16},"InChI=1S/C11H16/c1-9-6-5-7-10(8-9)11(2,3)4/h5-8H,1-4H3",JTIAYWZZZOZUTK-UHFFFAOYSA-N,"1-(1,1-dimethylethyl)-3-methylbenzene",2.878683743
,,1.825487002,0,0,17,744,0.241098653,0.791025198,3.873215512,C_{16}H_{34}O,"InChI=1S/C16H34O/c1-3-4-5-6-7-8-9-10-11-12-13-14-15-16(2)17/h16-17H,3-15H2,1-2H3",FVDRFBGMOWJEOR-UHFFFAOYSA-N,2-hexadecanol,1.418015632
0.312686859,0.545885409,1.875391261,16,1,17,600,0.785711757,0.876342377,0.776890754,C_{3}H_{6}S,InChI=1S/C3H6S/c1-2-4-3-1/h1-3H2,XSROQCDVUIHRSI-UHFFFAOYSA-N,thiacyclobutane,6.076131155
,,1.995493831,0,0,17,556.5,0.539085082,0.920236371,1.70104529,C_{8}H_{16},"InChI=1S/C8H16/c1-4-5-6-7-8(2)3/h4,8H,1,5-7H2,2-3H3",DFVOXRAAHOJJBN-UHFFFAOYSA-N,6-methyl-1-heptene,2.646928061
,,2.023918463,0,0,17,707,0.559876683,0.819706196,2.45231159,C_{12}H_{22}O_{4},"InChI=1S/C12H22O4/c1-3-9-15-11(13)7-5-6-8-12(14)16-10-4-2/h3-10H2,1-2H3",NKOUWLLFHNBUDW-UHFFFAOYSA-N,dipropyl hexanedioate,1.53589336
,,2.050433304,0,0,17,757.5809888,0.955390582,0.92491336,1.650249344,C_{14}H_{26}O_{3},"InChI=1S/C14H26O3/c1-3-4-5-6-7-8-9-12-17-14(16)11-10-13(2)15/h3-12H2,1-2H3",WHPUFRNEEAEIIG-UHFFFAOYSA-N,nonyl 4-oxopentanoate,2.334548093
,,2.138430558,0,0,17,675,0.845114528,0.982529677,1.096439414,C_{8}H_{9}Cl,"InChI=1S/C8H9Cl/c1-2-7-3-5-8(9)6-4-7/h3-6H,2H2,1H3",GPOFSFLJOIAMSA-UHFFFAOYSA-N,1-chloro-4-ethylbenzene,3.30079882
,,2.384433809,0,0,17,701.7,0.726479808,0.896192688,1.941927417,C_{12}H_{27}N,"InChI=1S/C12H27N/c1-2-3-4-5-6-7-8-9-10-11-12-13/h2-13H2,1H3",JRBPAEWTRLWTQC-UHFFFAOYSA-N,1-dodecanamine,2.017452832
2.804881885,,2.42907017,10,0,17,591,1.086562412,0.999989356,0.652513147,C_{3}H_{3}NO,InChI=1S/C3H3NO/c1-2-4-5-3-1/h1-3H,CTAPFRYPJLPFDF-UHFFFAOYSA-N,"1,2-oxazole",6.085280096
,0.016759207,2.549540457,0,1,17,732,0.483202964,0.824535686,3.013921744,C_{16}H_{30}O_{2},"InChI=1S/C16H30O2/c1-3-4-5-6-7-8-9-10-11-12-13-14-15-18-16(2)17/h4-5H,3,6-15H2,1-2H3/b5-4+",YJINQJFQLQIYHX-SNAWJCMRSA-N,(E)-tetradec-11-enyl acetate,1.489387913
,,2.601902952,0,0,17,567,0.831212739,0.891854633,1.989767337,C_{12}H_{13}F_{13},"InChI=1S/C12H13F13/c1-2-3-4-5-6-7(13,14)8(15,16)9(17,18)10(19,20)11(21,22)12(23,24)25/h2-6H2,1H3",UXOMJEKWJPXIKA-UHFFFAOYSA-N,"1,1,1,2,2,3,3,4,4,5,5,6,6-tridecafluorododecane",1.345867484
,,2.747536069,0,0,17,605,1.71958835,0.14532491,0.790206757,C_{7}H_{16}O,"InChI=1S/C7H16O/c1-4-7(8)5-6(2)3/h6-8H,4-5H2,1-3H3",RGCZULIFYUPTAR-UHFFFAOYSA-N,5-methyl-3-hexanol,3.026658544
,,2.752995112,0,0,17,597,0.51364126,0.921532635,1.68901451,C_{9}H_{18},"InChI=1S/C9H18/c1-7-4-8(2)6-9(3)5-7/h7-9H,4-6H2,1-3H3",ODNRTOSCFYDTKF-UHFFFAOYSA-N,"1,3,5-trimethylcyclohexane",2.655626821
,,2.779818956,0,0,17,627.8,0,0.226509179,0.743758672,C_{8}H_{14},"InChI=1S/C8H14/c1-3-5-7-8-6-4-2/h3,5,7-8H2,1-2H3",QCQALVMFTWRCFI-UHFFFAOYSA-N,2-octyne,3.016162956
,0.159335936,2.868063119,0,1,17,518,0.22190042,0.839565858,2.724303981,C_{2}H_{8}N_{2},"InChI=1S/C2H8N2/c1-4(2)3/h3H2,1-2H3",RHUYHJGZWVXEHW-UHFFFAOYSA-N,"N,N-dimethylhydrazine",5.868997627
,,3.009313478,0,0,17,868,0,0.222922845,0.753570554,C_{13}H_{24}O_{2},InChI=1S/C13H24O2/c14-13-11-9-7-5-3-1-2-4-6-8-10-12-15-13/h1-12H2,IUDIJIVSWGWJNV-UHFFFAOYSA-N,tridecanolactone,2.525103725
,0.312690839,3.039231757,0,1,17,800,0.353939952,0.825700275,2.191733735,C_{10}H_{8}N_{2},InChI=1S/C10H8N2/c1-3-7-11-9(5-1)10-6-2-4-8-12-10/h1-8H,ROFVEXUMMXZLPA-UHFFFAOYSA-N,"2,2'-bipyridine",3.722057962
,,3.213401142,0,0,17,692,0.634025168,0.869122133,2.268704497,C_{10}H_{18}O_{4},"InChI=1S/C10H18O4/c1-3-7-13-9(11)5-6-10(12)14-8-4-2/h3-8H2,1-2H3",SZHZCPHKDJWHNG-UHFFFAOYSA-N,"butanedioic acid, dipropyl ester",2.230798898
,,3.246229964,0,0,17,691,0.65905225,0.904866408,1.850463685,C_{12}H_{20}O_{2},"InChI=1S/C12H20O2/c1-8(13)14-10-7-9-5-6-12(10,4)11(9,2)3/h9-10H,5-7H2,1-4H3/t9-,10-,12+/m1/s1",KGEKLUUHTZCSIP-FOGDFJRCSA-N,"rel-(1R,2R,4R)-1,7,7-trimethylbicyclo[2.2.1]heptan-2-yl acetate",2.515808732
,,3.379709914,0,0,17,705,0.722863357,0.922764866,1.677797692,C_{7}H_{7}NO_{2},"InChI=1S/C7H7NO2/c1-10-7(9)6-3-2-4-8-5-6/h2-5H,1H3",YNBADRVTZLEFNH-UHFFFAOYSA-N,3-pyridinecarboxylic acid methyl ester,4.279647588
,0.407751759,3.391823805,0,1,17,531.7,0.385148149,0.83627373,1.85618524,C_{5}H_{12}O_{2},"InChI=1S/C5H12O2/c1-3-6-5-7-4-2/h3-5H2,1-2H3",KLKFAASOGCDTDT-UHFFFAOYSA-N,diethoxymethane,3.377800576
,0.001550473,3.428910965,0,1,17,592.3,1.462721975,0.998546986,0.606382173,C_{6}H_{15}N,"InChI=1S/C6H15N/c1-2-3-4-5-6-7/h2-7H2,1H3",BMVXCPBXGZKUPN-UHFFFAOYSA-N,1-hexanamine,3.378540952
,0.011389878,3.604777715,0,2,17,708,1.702578853,0.983573918,0.56930574,C_{7}H_{14}Cl_{2},InChI=1S/C7H14Cl2/c8-6-4-2-1-3-5-7-9/h1-7H2,PSEMXLIZFGUOGC-UHFFFAOYSA-N,"1,7-dichloroheptane",2.758289539
,,3.628589756,0,0,17,573.9,0.401770233,0.9223486,1.680624776,C_{8}H_{16},"InChI=1S/C8H16/c1-6-8(4,5)7(2)3/h2,6H2,1,3-5H3",TUSBCMPNIOJUBX-UHFFFAOYSA-N,"1-pentene, 2,3,3-trimethyl-",2.720536289
0.898062498,2.824795873,3.868096033,35,3,17,500,1.157141909,0.999997681,0.564754511,C_{5}H_{8},InChI=1S/C5H8/c1-2-5(1)3-4-5/h1-4H2,OGNAOIGAPPSUMG-UHFFFAOYSA-N,spiro[2.2]pentane,5.062288091
,,3.956144771,0,0,17,595.710425,1.608475002,0.928567068,0.502501662,C_{4}H_{10}Cl_{2}Si,"InChI=1S/C4H10Cl2Si/c1-3-7(5,6)4-2/h3-4H2,1-2H3",BYLOHCRAPOSXLY-UHFFFAOYSA-N,dichlorodiethylsilane,3.060017792
,,4.100567156,0,0,17,460,0.647290447,0.947997055,0.997470886,C_{4}H_{2},InChI=1S/C4H2/c1-3-4-2/h1-2H,LLCSWKVOHICRDD-UHFFFAOYSA-N,"1,3-butadiyne",5.448482789
,,4.187672995,0,0,17,600,1.631048878,0.995052902,0.417804878,C_{4}H_{8}Cl_{2},"InChI=1S/C4H8Cl2/c1-3(5)4(2)6/h3-4H,1-2H3",RMISVOPUIFJTEO-UHFFFAOYSA-N,"2,3-dichlorobutane",3.802637937
,0.820895248,4.305627519,0,1,17,463.89,1.544636304,0.309109951,0.790341539,C_{4}H_{3}F_{7}O,"InChI=1S/C4H3F7O/c5-2(6)4(10,11)12-1-3(7,8)9/h2H,1H2",CWIFAKBLLXGZIC-UHFFFAOYSA-N,"2,2,2-trifluoroethyl 1,1,2,2-tetrafluoroethyl ether",2.712556347
,,4.38999947,0,0,17,866,0.460534207,0.865154262,2.323084154,C_{15}H_{12},"InChI=1S/C15H12/c1-2-6-12(7-3-1)15-10-13-8-4-5-9-14(13)11-15/h1-10H,11H2",BSBXLZYWGGAVHD-UHFFFAOYSA-N,2-phenyl-1H-indene,3.132817572
,0.040713808,4.466796113,0,1,17,779,1.728939469,0.999847728,0.674243048,C_{14}H_{27}N,"InChI=1S/C14H27N/c1-2-3-4-5-6-7-8-9-10-11-12-13-14-15/h2-13H2,1H3",MLRCLPRHEOPXLL-UHFFFAOYSA-N,tetradecanenitrile,1.91922401
,,4.553525767,0,0,17,600.5,0.439157941,0.922984312,1.675458021,C_{8}H_{16},"InChI=1S/C8H16/c1-7-5-3-4-6-8(7)2/h7-8H,3-6H2,1-2H3",KVZJLSYJROEPSQ-UHFFFAOYSA-N,"1,2-dimethylcyclohexane",3.090222994
,,5.854685576,0,0,17,729,0.344940201,0.72612148,1.971634166,C_{11}H_{16}O,"InChI=1S/C11H16O/c1-8-7-9(11(2,3)4)5-6-10(8)12/h5-7,12H,1-4H3",SNKLPZOJLXDZCW-UHFFFAOYSA-N,2-methyl-4-tert-butylphenol,2.68668127
,,6.125966251,0,0,17,651,0,0.256188531,0.707898881,C_{5}H_{10}O_{2},"InChI=1S/C5H10O2/c1-4(6)5(2,3)7/h7H,1-3H3",BNDRWEVUODOUDW-UHFFFAOYSA-N,"2-butanone, 3-hydroxy-3-methyl-",3.14076532
,,6.205050231,0,0,17,600,0.673011285,0.891706459,1.991273149,C_{6}H_{12}O_{3},"InChI=1S/C6H12O3/c1-4(2)9-6(8)5(3)7/h4-5,7H,1-3H3/t5-/m0/s1",KIWATKANDHUUOB-YFKPBYRVSA-N,isopropyl (S)-2-hydroxypropionate,4.004468896
,,6.215650504,0,0,17,626,0.36284153,0.818793838,1.535154972,C_{6}H_{10}O_{2},"InChI=1S/C6H10O2/c1-8-6(7)5-3-2-4-5/h5H,2-4H2,1H3",CBTGNLZUIZHUHY-UHFFFAOYSA-N,methyl cyclobutanecarboxylate,2.477105154
,0.305106737,6.312269251,0,1,17,757,1.260611133,0.99984782,0.814170583,C_{14}H_{26},"InChI=1S/C14H26/c1-12(13-8-4-2-5-9-13)14-10-6-3-7-11-14/h12-14H,2-11H2,1H3",FUZBYNWONHYNOB-UHFFFAOYSA-N,"1,1-dicyclohexylethane",2.24712995
,,6.405870772,0,0,17,582,0,0.156286608,1.01635919,C_{7}H_{16}O,"InChI=1S/C7H16O/c1-6(2)5-7(3,4)8/h6,8H,5H2,1-4H3",FMLSQAUAAGVTJO-UHFFFAOYSA-N,"2,4-dimethyl-2-pentanol",3.004945459
,,7.369659114,0,0,17,805.3618654,2.146648745,0.999677884,0.537326465,C_{16}H_{31}N,"InChI=1S/C16H31N/c1-2-3-4-5-6-7-8-9-10-11-12-13-14-15-16-17/h2-15H2,1H3",WGXGAUQEMYSVJM-UHFFFAOYSA-N,hexadecanenitrile,1.604005768
,,8.920473364,0,0,17,819,0,0.299932073,0.640995898,C_{9}H_{16}O_{2},InChI=1S/C9H16O2/c10-9-7-5-3-1-2-4-6-8-11-9/h1-8H2,FTXUQEKXCJSWMO-UHFFFAOYSA-N,"nonanoic acid, 9-hydroxy-, .theta.-lactone",3.449369699
,0.087780675,9.179862243,0,1,17,716,0.464613967,0.812629331,3.279344261,C_{15}H_{26}O,"InChI=1S/C15H26O/c1-12(2)6-5-11-15(4,16)14-9-7-13(3)8-10-14/h6-7,14,16H,5,8-11H2,1-4H3/t14-,15+/m1/s1",RGZSQWQPBWRIAQ-CABCVRRESA-N,(-)-.alpha.-bisabolol,2.020852522
,,9.253164804,0,0,17,670.2692308,0.644387647,0.905178279,1.847230634,C_{8}H_{16}O_{4},"InChI=1S/C8H16O4/c1-3-10-4-5-11-6-7-12-8(2)9/h3-7H2,1-2H3",FPZWZCWUIYYYBU-UHFFFAOYSA-N,2-(2-ethoxyethoxy)ethyl acetate,2.502913765
,,10.13508667,0,0,17,730,1.834953947,0.637084202,0.666269431,C_{10}H_{14}O,"InChI=1S/C10H14O/c1-2-3-4-9-5-7-10(11)8-6-9/h5-8,11H,2-4H2,1H3",CYYZDBDROVLTJU-UHFFFAOYSA-N,4-butylphenol,2.97456489
,,11.22871115,0,0,17,752,0.606150319,0.755825379,1.95368299,C_{8}H_{18}O_{2},"InChI=1S/C8H18O2/c9-7-5-3-1-2-4-6-8-10/h9-10H,1-8H2",OEIJHBUUFURJLI-UHFFFAOYSA-N,"1,8-octanediol",2.7
,,14.50769772,0,0,17,716,0.473963306,0.508308034,1.244153069,C_{10}H_{14}O,"InChI=1S/C10H14O/c1-2-3-6-9-7-4-5-8-10(9)11/h4-5,7-8,11H,2-3,6H2,1H3",GJYCVCVHRSWLNY-UHFFFAOYSA-N,2-butylphenol,2.929341872
,,15.84144549,0,0,17,747.7,0.837294824,0.857418422,2.434489885,C_{21}H_{44},"InChI=1S/C21H44/c1-4-6-7-8-9-10-11-12-13-14-15-16-17-18-19-20-21(3)5-2/h21H,4-20H2,1-3H3",GZCXIMGMPAZPPM-UHFFFAOYSA-N,3-methyleicosane,1.507937419
,,16.51958628,0,0,17,599,0.67876189,0.917794428,1.723403954,C_{3}H_{5}NO_{2},"InChI=1S/C3H5NO2/c1-2-3-4(5)6/h2-3H,1H3",RIHXMHKNTLBIPJ-UHFFFAOYSA-N,1-nitropropene,5.700731272