AAD_Csat,AAD_hfg,AAD_psat,N_Csat,N_hfg,N_psat,Tc_K,c0,c1,c2,formula,inchi,inchikey,name,pc_MPa
,,0.549409556,0,0,14,428,1.337914951,0.999565752,0.71045552,C_{5}F_{10}O,"InChI=1S/C5F10O/c6-1(16)2(7,8)3(9,10)4(11,12)5(13,14)15",RUFSXELMOQBMOF-UHFFFAOYSA-N,perfluoropentanoyl fluoride,1.943462339
,,0.716522077,0,0,14,482.02,1.232013193,0.995354213,0.82587455,C_{6}H_{5}F_{9}O,"InChI=1S/C6H5F9O/c1-2-16-6(14,15)4(9,10)3(7,8)5(11,12)13/h2H2,1H3",DFUYAWQUODQGFF-UHFFFAOYSA-N,"1-ethoxy-1,1,2,2,3,3,4,4,4-nonafluorobutane",1.975391202
,,0.743173215,0,0,14,637,1.080131063,0.870861041,0.734783769,C_{7}H_{15}N,"InChI=1S/C7H15N/c1-8-7-5-3-2-4-6-7/h7-8H,2-6H2,1H3",XTUVJUMINZSXGF-UHFFFAOYSA-N,N-methylcyclohexylamine,4.270329934
,,0.772937306,0,0,14,950,1.655555393,0.905770983,1.48237584,C_{51}H_{98}O_{6},"InChI=1S/C51H98O6/c1-4-7-10-13-16-19-22-24-25-27-29-32-35-38-41-44-50(53)56-47-48(46-55-49(52)43-40-37-34-31-28-21-18-15-12-9-6-3)57-51(54)45-42-39-36-33-30-26-23-20-17-14-11-8-5-2/h48H,4-47H2,1-3H3",JTDPHURHZMZJHD-UHFFFAOYSA-N,"octadecanoic acid, 2-[(1-oxohexadecyl)oxy]-3-[(1-oxotetradecyl)oxy]propyl ester",0.236064891
,,0.834171517,0,0,14,895,1.335756547,0.880959774,1.063607273,C_{6}H_{4}N_{4}O_{6},"InChI=1S/C6H4N4O6/c7-6-4(9(13)14)1-3(8(11)12)2-5(6)10(15)16/h1-2H,7H2",IAHOUQOWMXVMEH-UHFFFAOYSA-N,"1-amino-2,4,6-trinitrobenzene",2.120109455
,0.008940556,1.01318899,0,14,14,767,1.016550489,0.740128963,1.15311375,C_{12}H_{28}N_{2},InChI=1S/C12H28N2/c13-11-9-7-5-3-1-2-4-6-8-10-12-14/h1-14H2,QFTYSVGGYOXFRQ-UHFFFAOYSA-N,"1,12-dodecanediamine",2.004217851
,0.000265752,1.021132747,0,1,14,621,0.422305302,0.817870352,1.323242784,C_{8}H_{12},"InChI=1S/C8H12/c1-2-8-6-4-3-5-7-8/h2-4,8H,1,5-7H2",BBDKZWKEPDTENS-UHFFFAOYSA-N,4-ethenylcyclohexene,3.783416067
,,1.093553304,0,0,14,669,1.130822684,0.952302824,0.730337437,C_{9}H_{10},"InChI=1S/C9H10/c1-3-9-7-5-4-6-8(9)2/h3-7H,1H2,2H3",NVZWEEGUWXZOKI-UHFFFAOYSA-N,1-ethenyl-2-methylbenzene,4.042801791
,,1.179726211,0,0,14,629,1.202173959,0.94891087,0.709999792,C_{6}H_{10}O_{2},"InChI=1S/C6H10O2/c1-2-6-3-4-7-5-8-6/h2,6H,1,3-5H2",VPCZGAGWRHOWMC-UHFFFAOYSA-N,"4-vinyl-1,3-dioxane",4.417400896
,,1.204089569,0,0,14,851,1.062011569,0.555164152,0.762444059,C_{12}H_{22}N_{2},"InChI=1S/C12H22N2/c1-3-4-5-6-7-8-10-14-11-9-13-12(14)2/h9,11H,3-8,10H2,1-2H3",OWOSSTCHCATHMM-UHFFFAOYSA-N,2-methyl-1-octyl-1H-imidazole,2.803231087
,,1.271035232,0,0,14,743,0.437169721,0.837975528,2.011137817,C_{7}H_{12}O_{2},"InChI=1S/C7H12O2/c1-2-3-6-4-5-7(8)9-6/h6H,2-5H2,1H3",VLSVVMPLPMNWBH-UHFFFAOYSA-N,"2(3H)-furanone, dihydro-5-propyl-",3.70683305
,,1.281883338,0,0,14,408,2.175122112,0.917210882,0.310665515,C_{2}H_{4}F_{2}O,"InChI=1S/C2H4F2O/c1-5-2(3)4/h2H,1H3",CGZAMBNIGLUBRY-UHFFFAOYSA-N,difluoromethoxymethane,3.605551748
,,1.306255741,0,0,14,631,0.467519114,0.835047998,1.488538779,C_{5}H_{6}N_{2},"InChI=1S/C5H6N2/c1-5-4-6-2-3-7-5/h2-4H,1H3",CAWHJQAVHZEVTJ-UHFFFAOYSA-N,2-methylpyrazine,5.085166615
,,1.320768126,0,0,14,566.6288139,0.368954066,0.785079943,4.069501102,C_{8}HF_{15}O_{2},"InChI=1S/C8HF15O2/c9-2(10,1(24)25)3(11,12)4(13,14)5(15,16)6(17,18)7(19,20)8(21,22)23/h(H,24,25)",SNGREZUHAYWORS-UHFFFAOYSA-N,pentadecafluorooctanoic acid,1.251109459
,,1.359014326,0,0,14,600,0.238343219,0.804555179,3.467066133,C_{9}H_{8}F_{8}O_{2},"InChI=1S/C9H8F8O2/c1-4(2)5(18)19-3-7(12,13)9(16,17)8(14,15)6(10)11/h6H,1,3H2,2H3",ZNJXRXXJPIFFAO-UHFFFAOYSA-N,"2,2,3,3,4,4,5,5-octafluoropentyl methacrylate",1.854447439
,,1.463248617,0,0,14,551,1.466342962,0.999634657,0.846905198,C_{8}H_{5}F_{9}O_{2},"InChI=1S/C8H5F9O2/c1-2-4(18)19-3-5(9,10)6(11,12)7(13,14)8(15,16)17/h2H,1,3H2",UOKXSSAMUUASQX-UHFFFAOYSA-N,"2,2,3,3,4,4,5,5,5-nonafluoropentyl acrylate",1.848794359
,,1.475006161,0,0,14,481.54,1.558836144,0.998006431,0.62856475,C_{5}H_{5}F_{7}O,"InChI=1S/C5H5F7O/c1-13-2-3(6,7)4(8,9)5(10,11)12/h2H2,1H3",ZUBVOEGCTVLBQN-UHFFFAOYSA-N,"1,1,1,2,2,3,3-heptafluoro-4-methoxybutane",2.37963341
,,1.604194727,0,0,14,447.4,0.395732684,0.74894965,1.848939607,C_{5}H_{2}F_{10}O,"InChI=1S/C5H2F10O/c6-2(4(10,11)12,1-3(7,8)9)16-5(13,14)15/h1H2",DUQLKPVMMYUMNF-UHFFFAOYSA-N,"1,1,1,2,4,4,4-heptafluoro-2-trifluoromethoxybutane",2.146755497
0.043558582,,1.760667732,13,0,14,816.2240677,0.609606187,0.825506233,1.156820486,C_{6}H_{4}BrI,InChI=1S/C6H4BrI/c7-5-1-3-6(8)4-2-5/h1-4H,UCCUXODGPMAHRL-UHFFFAOYSA-N,1-bromo-4-iodobenzene,5.541154479
,,1.781854906,0,0,14,703,0.485072289,0.903479426,1.864304091,C_{6}H_{4}BrCl,InChI=1S/C6H4BrCl/c7-5-1-3-6(8)4-2-5/h1-4H,NHDODQWIKUYWMW-UHFFFAOYSA-N,1-bromo-4-chlorobenzene,3.98464533
,,1.82674651,0,0,14,591.2,1.188360446,0.999994303,0.62962538,C_{7}H_{7}F,"InChI=1S/C7H7F/c1-6-4-2-3-5-7(6)8/h2-5H,1H3",MMZYCBHLNZVROM-UHFFFAOYSA-N,1-fluoro-2-methylbenzene,3.904860973
,,1.836231558,0,0,14,812,0.822385019,0.923131169,1.674463997,C_{10}H_{14}O_{2},"InChI=1S/C10H14O2/c1-10(2,3)7-5-4-6-8(11)9(7)12/h4-6,11-12H,1-3H3",JIGUICYYOYEXFS-UHFFFAOYSA-N,"3-(tert-butyl)benzene-1,2-diol",3.146401276
,,1.915196011,0,0,14,767,1.220956813,0.999865706,0.89557299,C_{8}H_{9}ClO,"InChI=1S/C8H9ClO/c9-8-3-1-7(2-4-8)5-6-10/h1-4,10H,5-6H2",HZFRKZWBVUJYDA-UHFFFAOYSA-N,2-(4-chlorophenyl)ethanol,3.663558571
,0.001618971,1.923221853,0,1,14,779,0.60858271,0.777692456,2.341764774,C_{20}H_{38}O_{2},"InChI=1S/C20H38O2/c1-3-4-5-6-7-8-9-10-11-12-13-14-15-16-17-18-19-22-20(2)21/h6-7H,3-5,8-19H2,1-2H3/b7-6-",PPNRRQMJESAXGJ-SREVYHEPSA-N,(Z)-octadec-13-en-1-yl acetate,1.064431912
,,1.96735357,0,0,14,668,1.726923642,0.999950355,0.47034482,C_{10}H_{12},"InChI=1S/C10H12/c1-3-9(2)10-7-5-4-6-8-10/h4-8H,2-3H2,1H3",SQHOHKQMTHROSF-UHFFFAOYSA-N,2-phenyl-1-butene,3.061000175
,,2.023668637,0,0,14,665,0.735810377,0.948713081,1.356124494,C_{10}H_{14},"InChI=1S/C10H14/c1-4-10-6-5-8(2)9(3)7-10/h5-7H,4H2,1-3H3",SBUYFICWQNHBCM-UHFFFAOYSA-N,"1-ethyl-3,4-dimethylbenzene",2.886113603
,0.010013433,2.135469771,0,1,14,677,0.808043869,0.835085532,1.73468694,C_{10}H_{18}O_{4},"InChI=1S/C10H18O4/c1-3-5-9(11)13-7-8-14-10(12)6-4-2/h3-8H2,1-2H3",SFTRWCBAYKQWCS-UHFFFAOYSA-N,"1,2-ethanediol dibutanoate",2.138455762
,0.009331241,2.143074839,0,1,14,631,1.036569328,0.999717104,0.756484143,C_{4}H_{5}N,"InChI=1S/C4H5N/c5-3-4-1-2-4/h4H,1-2H2",AUQDITHEDVOTCU-UHFFFAOYSA-N,cyclopropanecarbonitrile,4.619821411
,,2.202003517,0,0,14,703,1.313423525,0.9565021,0.792727594,C_{4}Cl_{6},InChI=1S/C4Cl6/c5-1(3(7)8)2(6)4(9)10,RWNKSTSCBHKHTB-UHFFFAOYSA-N,"1,1,2,3,4,4-hexachloro-1,3-butadiene",3.966370505
,,2.352022157,0,0,14,753,0.493662489,0.526733768,0.97111456,C_{8}H_{8}O_{2},"InChI=1S/C8H8O2/c1-6(9)7-4-2-3-5-8(7)10/h2-5,10H,1H3",JECYUBVRTQDVAT-UHFFFAOYSA-N,1-(2-hydroxyphenyl)ethanone,4.403121463
,,2.400952807,0,0,14,573,1.027615237,0.968155998,1.192675876,C_{6}H_{6}F_{4}O_{2},"InChI=1S/C6H6F4O2/c1-2-4(11)12-3-6(9,10)5(7)8/h2,5H,1,3H2",VHJHZYSXJKREEE-UHFFFAOYSA-N,"2,2,3,3-tetrafluoropropyl acrylate",3.264429765
,,2.531609848,0,0,14,531.56,0.803774122,0.946451184,1.378120497,C_{5}H_{10}O,"InChI=1S/C5H10O/c1-3-5(2)4-6/h4-5H,3H2,1-2H3",BYGQBDHUGHBGMD-UHFFFAOYSA-N,"butanal, 2-methyl-",4.037022427
0.341486575,0.404035553,2.564568669,26,1,14,458,0.417941488,0.841579544,1.149934974,CH_{3}Br,InChI=1S/CH3Br/c1-2/h1H3,GZUXJHMPEANEGY-UHFFFAOYSA-N,bromomethane,6.225560359
,,2.583402121,0,0,14,716,1.265830065,0.999877203,0.778912521,C_{11}H_{16},"InChI=1S/C11H16/c1-7-6-8(2)10(4)11(5)9(7)3/h6H,1-5H3",BEZDDPMMPIDMGJ-UHFFFAOYSA-N,"1,2,3,4,5-pentamethylbenzene",2.687893374
,,2.696056624,0,0,14,504,0.633584137,0.905559673,1.843460888,C_{8}F_{16},"InChI=1S/C8F16/c9-2(10)1(7(19,20)21,8(22,23)24)3(11,12)5(15,16)6(17,18)4(2,13)14",HWJPHQNEWARZLH-UHFFFAOYSA-N,"perfluoro-1,3-dimethylcyclohexane",1.820538136
,,2.776768695,0,0,14,576.651,0.537006416,0.918563673,1.716649021,C_{9}H_{20},"InChI=1S/C9H20/c1-5-6-7-8-9(2,3)4/h5-8H2,1-4H3",PSABUFWDVWCFDP-UHFFFAOYSA-N,"2,2-dimethylheptane",2.349784379
,,3.307904193,0,0,14,580,0.033822697,0.001515235,0.74642225,C_{4}H_{12}N_{2},"InChI=1S/C4H12N2/c1-5-3-4-6-2/h5-6H,3-4H2,1-2H3",KVKFRMCSXWQSNT-UHFFFAOYSA-N,"N1,N2-dimethylethane-1,2-diamine",3.772508662
,,3.311010259,0,0,14,364.02309,0.158623687,0.814836131,2.684908825,F_{4}S,"InChI=1S/F4S/c1-5(2,3)4",QHMQWEPBXSHHLH-UHFFFAOYSA-N,sulfur tetrafluoride,5.265571839
,,3.447021955,0,0,14,714.9,0.380551907,0.824434993,3.015734803,C_{16}H_{34},"InChI=1S/C16H34/c1-4-5-6-7-8-9-10-11-12-13-14-15-16(2)3/h16H,4-15H2,1-3H3",BANXPJUEBPWEOT-UHFFFAOYSA-N,2-methylpentadecane,1.423722295
,0.799863313,3.499859703,0,1,14,311.100667,0.133205792,0.834196944,2.822923728,C_{2}F_{3}N,"InChI=1S/C2F3N/c3-2(4,5)1-6",SFFUEHODRAXXIA-UHFFFAOYSA-N,trifluoroethanenitrile,3.705347497
,,3.536522029,0,0,14,554,0.459932175,0.874776377,2.194445352,C_{4}H_{8}O_{3},"InChI=1S/C4H8O3/c1-3-7-4(5)6-2/h3H2,1-2H3",JBTWLSYIZRCDFO-UHFFFAOYSA-N,ethyl methyl carbonate,4.195237252
,0.385682358,3.68746388,0,1,14,455.1,2.823024746,0.999560912,0.320616614,C_{4}H_{3}F_{7}O,"InChI=1S/C4H3F7O/c5-2(6)12-1-3(7,8)4(9,10)11/h2H,1H2",NKEBKUGEYSHGKA-UHFFFAOYSA-N,"difluoromethyl 2,2,3,3,3-pentafluoropropyl ether",2.774171748
,0.797381825,3.924471452,0,5,14,558,0.22676028,0.848905099,2.566534186,C_{6}H_{15}N,"InChI=1S/C6H15N/c1-4-5-7-6(2)3/h6-7H,4-5H2,1-3H3",VLSTXUUYLIALPB-UHFFFAOYSA-N,"1-propanamine, N-(1-methylethyl)-",4.065539519
,,4.795195526,0,0,14,866,0.753335309,0.905301726,1.846118247,C_{16}H_{14},"InChI=1S/C16H14/c1-2-12-7-8-15-10-13-5-3-4-6-14(13)11-16(15)9-12/h3-11H,2H2,1H3",ZXAGXLDEMUNQSH-UHFFFAOYSA-N,2-ethylanthracene,3.359969304
,0.277819611,4.844374743,0,1,14,570,0.124546969,0.811945297,3.294089518,C_{9}H_{18},"InChI=1S/C9H18/c1-8(2)6-5-7-9(3)4/h9H,1,5-7H2,2-4H3",JUUMAEXLYIMEOD-UHFFFAOYSA-N,"2,6-dimethyl-1-heptene",2.42254841
,,4.859093657,0,0,14,591,0.695351977,0.846428864,2.607125016,C_{10}H_{5}F_{17}O,"InChI=1S/C10H5F17O/c11-3(12,1-2-28)4(13,14)5(15,16)6(17,18)7(19,20)8(21,22)9(23,24)10(25,26)27/h28H,1-2H2",JJUBFBTUBACDHW-UHFFFAOYSA-N,"1-decanol, 3,3,4,4,5,5,6,6,7,7,8,8,9,9,-heptadecafluoro",1.521460773
,0.027280918,4.923604664,0,1,14,765.7,0.364373305,0.816965534,3.178362446,C_{16}H_{33}Cl,"InChI=1S/C16H33Cl/c1-2-3-4-5-6-7-8-9-10-11-12-13-14-15-16-17/h2-16H2,1H3",CLWAXFZCVYJLLM-UHFFFAOYSA-N,1-chlorohexadecane,1.415414843
,,5.04990258,0,0,14,777,1.440852436,0.976767571,1.132209515,C_{20}H_{40}O_{2},"InChI=1S/C20H40O2/c1-3-4-5-6-7-8-9-10-11-12-13-14-15-16-17-18-19-22-20(2)21/h3-19H2,1-2H3",OIZXRZCQJDXPFO-UHFFFAOYSA-N,octadecyl ethanoate,0.923230813
,,5.265487585,0,0,14,757,0.979296364,0.472789294,0.781211595,C_{13}H_{21}N,"InChI=1S/C13H21N/c1-12(2,13(3,4)14-5)11-9-7-6-8-10-11/h6-10,14H,1-5H3",NRGLCEUBQOEDBK-UHFFFAOYSA-N,"N-methyl-2,3-dimethyl-3-phenyl-2-butanamine",2.356868774
,1.211363822,5.900697018,0,3,14,584,0.031527718,0.78958573,3.916512399,C_{7}H_{16}O,"InChI=1S/C7H16O/c1-5-6(8)7(2,3)4/h6,8H,5H2,1-4H3",HMSVXZJWPVIVIV-UHFFFAOYSA-N,"2,2-dimethyl-3-pentanol",3.104686035
,,6.074230573,0,0,14,660,1.234651851,0.999820108,0.631758048,C_{10}H_{16},"InChI=1S/C10H16/c1-7-4-5-8-9(6-7)10(8,2)3/h4,8-9H,5-6H2,1-3H3",BQOFWKZOCNGFEC-UHFFFAOYSA-N,"bicyclo[4.1.0]hept-3-ene, 3,7,7-trimethyl-",2.934498895
,,6.755966798,0,0,14,691,1.145002981,0.929619841,1.268384324,C_{13}H_{26}O_{2},"InChI=1S/C13H26O2/c1-3-5-6-7-8-9-10-11-13(14)15-12-4-2/h3-12H2,1-2H3",OVFMRFMJVFDSAA-UHFFFAOYSA-N,propyl decanoate,1.82659057
,,7.123959446,0,0,14,780,1.276704943,0.99997405,0.767441345,C_{12}H_{12},"InChI=1S/C12H12/c1-9-7-8-11-5-3-4-6-12(11)10(9)2/h3-8H,1-2H3",QNLZIZAQLLYXTC-UHFFFAOYSA-N,"1,2-dimethylnaphthalene",3.181870582
,,7.428841623,0,0,14,752,1.280043922,0.859773584,0.753195899,C_{13}H_{20}O,"InChI=1S/C13H20O/c1-10-6-5-9-13(3,4)12(10)8-7-11(2)14/h6-8,12H,5,9H2,1-4H3/b8-7+",UZFLPKAIBPNNCA-BQYQJAHWSA-N,.alpha.-ionone,2.347991485
,0.102790008,7.752026533,0,1,14,693,1.2912609,0.94705281,0.828764364,C_{10}H_{22}S,"InChI=1S/C10H22S/c1-3-5-7-9-11-10-8-6-4-2/h3-10H2,1-2H3",JOZDADPMWLVEJK-UHFFFAOYSA-N,6-thiaundecane,2.257254373
,,8.534710209,0,0,14,530,0.62858424,0.911586515,1.783292404,C_{5}H_{10}O_{2},"InChI=1S/C5H10O2/c1-4-3-6-5(2)7-4/h4-5H,3H2,1-2H3",ROSFUFIOLRQOON-UHFFFAOYSA-N,"2,4-dimethyl-1,3-dioxolane",5.014762075
0.540618271,2.876717752,8.798048089,1,1,14,566,0.149866155,0.847956584,2.580970162,C_{7}H_{8},"InChI=1S/C7H8/c1-2-7-4-3-6(1)5-7/h1-4,6-7H,5H2",SJYNFBVQFBRSIB-UHFFFAOYSA-N,"bicyclo[2.2.1]hepta-2,5-diene",4.480206575
,,9.059083616,0,0,14,778,1.434504247,0.976299258,1.135013795,C_{28}H_{58},"InChI=1S/C28H58/c1-22(19-26(4,5)6)13-16-25(17-14-23(2)20-27(7,8)9)18-15-24(3)21-28(10,11)12/h22-25H,13-21H2,1-12H3",VJDJSJSGMRWTIK-UHFFFAOYSA-N,"2,2,4,10,12,12-hexamethyl-7-(3,5,5-trimethylhexyl)tridecane",0.687727666
,,9.168066804,0,0,14,750,0.371014363,0.80989192,2.257750785,C_{12}H_{16}O_{2},"InChI=1S/C12H16O2/c1-12(2)8-13-11(14-9-12)10-6-4-3-5-7-10/h3-7,11H,8-9H2,1-2H3",VUJMMVJKRWURKX-UHFFFAOYSA-N,"1,3-dioxane, 5,5-dimethyl-2-phenyl-",2.941950885
,,10.3167232,0,0,14,843,0.777918782,0.920479411,1.698507826,C_{4}H_{5}NO_{2},"InChI=1S/C4H5NO2/c6-3-1-2-4(7)5-3/h1-2H2,(H,5,6,7)",KZNICNPSHKQLFF-UHFFFAOYSA-N,succinimide,7.243434802
,,10.60860018,0,0,14,614,0.146869958,0.002526472,0.891417221,C_{8}H_{18}O,"InChI=1S/C8H18O/c1-4-6-7-8(3,9)5-2/h9H,4-7H2,1-3H3",PQOSNJHBSNZITJ-UHFFFAOYSA-N,3-methyl-3-heptanol,2.575510134
,,12.31756678,0,0,14,778,0.771301498,0.807120329,1.625346478,C_{4}H_{10}O_{2}S,"InChI=1S/C4H10O2S/c5-1-3-7-4-2-6/h5-6H,1-4H2",YODZTKMDCQEPHD-UHFFFAOYSA-N,".beta.,.beta.'-dihydroxydiethyl sulfide",4.162641842
1.029949451,2.536453095,13.81058992,41,1,14,323,1.615763451,0.999985955,0.491447852,C_{2}F_{4}O,"InChI=1S/C2F4O/c3-1(7)2(4,5)6",DCEPGADSNJKOJK-UHFFFAOYSA-N,trifluoroacetyl fluoride,4.084307303
,,14.595124,0,0,14,810,0.590165949,0.872912032,2.217842577,C_{19}H_{36},"InChI=1S/C19H36/c1-2-3-4-11-16-19(17-12-7-5-8-13-17)18-14-9-6-10-15-18/h17-19H,2-16H2,1H3",HPTHOHVOEWQDAX-UHFFFAOYSA-N,"1,1-dicyclohexylheptane",1.575570623
,,16.66876754,0,0,14,680,0.085342922,0.686530917,1.989651166,C_{10}H_{12},"InChI=1S/C10H12/c1-3-9(2)10-7-5-4-6-8-10/h3-8H,1-2H3",UGUYQBMBIJFNRM-UHFFFAOYSA-N,(1-methylpropenyl)benzene,3.13932989
,,17.07181573,0,0,14,634,0,0.435102908,0.505959946,C_{5}H_{10}O_{2},"InChI=1S/C5H10O2/c1-3-5(2)7-4-6/h4-5H,3H2,1-2H3",OAEQYDZVVPONKW-UHFFFAOYSA-N,1-methylpropyl methanoate,3.514784499
,,25.17432805,0,0,14,705,0.562887601,0.923694104,1.669325918,C_{6}H_{2}Cl_{3}F,InChI=1S/C6H2Cl3F/c7-3-1-4(8)6(10)5(9)2-3/h1-2H,NCPNJBWUNXRYGW-UHFFFAOYSA-N,"1,3,5-trichloro-2-fluorobenzene",4.028235306
,,28.01264796,0,0,14,831,1.539194369,0.000163995,1.55792869,C_{18}H_{15}N,InChI=1S/C18H15N/c1-4-10-16(11-5-1)19(17-12-6-2-7-13-17)18-14-8-3-9-15-18/h1-15H,ODHXBMXNKOYIBV-UHFFFAOYSA-N,triphenylamine,2.070159707
,3.530771968,30.44035414,0,2,14,650,0.813624854,0.919915388,1.703958901,C_{10}H_{18}O_{2},"InChI=1S/C10H18O2/c1-4-5-6-7-12-10(11)8-9(2)3/h8H,4-7H2,1-3H3",NMUKAHSPJUKENF-UHFFFAOYSA-N,pentyl 3-methyl-2-butenoate,2.270914705
,,35.38433089,0,0,14,732,0.907381124,0.789338998,1.11930477,C_{9}H_{12}O,"InChI=1S/C9H12O/c10-8-4-7-9-5-2-1-3-6-9/h1-3,5-6,10H,4,7-8H2",VAJVDSVGBWFCLW-UHFFFAOYSA-N,3-phenyl-1-propanol,3.46
,,92.4062243,0,0,14,685,0.735614252,0.890456928,2.001373595,C_{13}H_{28}O,"InChI=1S/C13H28O/c1-4-7-10-13(14,11-8-5-2)12-9-6-3/h14H,4-12H2,1-3H3",RWKMYNWNESNJQQ-UHFFFAOYSA-N,"1,1-dibutyl-1-pentanol",1.74337038
,,0.029150048,0,0,13,634,0.991396524,0.906478952,0.728016831,C_{6}H_{12}S,"InChI=1S/C6H12S/c1-5-3-4-6(2)7-5/h5-6H,3-4H2,1-2H3",IBKCTZVPGMUZGZ-UHFFFAOYSA-N,"tetrahydro-2,5-dimethylthiophene",3.679334377
,,0.135587026,0,0,13,594,1.124761757,0.910468481,0.78504296,C_{4}H_{11}NO,"InChI=1S/C4H11NO/c1-6-4-2-3-5/h2-5H2,1H3",FAXDZWQIWUSWJH-UHFFFAOYSA-N,.gamma.-methoxypropylamine,4.946124344
,,0.187498377,0,0,13,574.4,1.147105982,0.99714582,0.788941719,C_{8}H_{16},"InChI=1S/C8H16/c1-3-5-7-8-6-4-2/h3,5H,4,6-8H2,1-2H3/b5-3-",ILPBINAXDRFYPL-HYXAFXHYSA-N,(Z)-2-octene,2.684562848
,,0.227400788,0,0,13,368.07,1.08446476,0.975067278,0.738654197,C_{3}F_{6}O_{2},"InChI=1S/C3F6O2/c4-1(5)2(6,7)11-3(8,9)10-1",KGLNKLTXFWKSLA-UHFFFAOYSA-N,"perfluoro-1,3-dioxolane",2.718983667
,,0.238833544,0,0,13,565,0.257976834,0.836253305,2.708664432,C_{5}H_{8}O_{2},"InChI=1S/C5H8O2/c1-3-5(7)4(2)6/h3H2,1-2H3",TZMFJUDUGYTVRY-UHFFFAOYSA-N,"2,3-pentanedione",3.982750332
,,0.252336001,0,0,13,444,0.518663266,0.816927726,1.601869057,C_{6}F_{12},"InChI=1S/C6F12/c7-1(5(13,14)15)2(8,6(16,17)18)4(11,12)3(1,9)10",RBTROQHBNLSUTL-UHFFFAOYSA-N,"cyclobutane, hexafluoro-1,2-bis(trifluoromethyl)-",2.12944605
,,0.332009718,0,0,13,742,0.799128474,0.898575264,1.426803461,C_{8}H_{7}BrO_{2},"InChI=1S/C8H7BrO2/c1-11-8(10)6-2-4-7(9)5-3-6/h2-5H,1H3",CZNGTXVOZOWWKM-UHFFFAOYSA-N,methyl 4-bromobenzoate,3.644824157
,,0.446244289,0,0,13,562,0.844788381,0.985909707,1.069479788,C_{8}H_{14},"InChI=1S/C8H14/c1-7(2)5-6-8(3)4/h1,3,5-6H2,2,4H3",DSAYAFZWRDYBQY-UHFFFAOYSA-N,"2,5-dimethyl-1,5-hexadiene",2.700430899
,,0.468711538,0,0,13,692,1.011907188,0.938062433,0.857441771,C_{7}H_{4}FN,InChI=1S/C7H4FN/c8-7-3-1-6(5-9)2-4-7/h1-4H,AEKVBBNGWBBYLL-UHFFFAOYSA-N,4-fluorobenzonitrile,3.773356649
,,0.559836952,0,0,13,937,1.60589313,0.929505194,1.518570578,C_{47}H_{90}O_{6},"InChI=1S/C47H90O6/c1-4-7-10-13-16-19-21-22-23-24-26-29-31-34-37-40-46(49)52-43-44(53-47(50)41-38-35-32-27-18-15-12-9-6-3)42-51-45(48)39-36-33-30-28-25-20-17-14-11-8-5-2/h44H,4-43H2,1-3H3",URBCZEZBOBWPKN-UHFFFAOYSA-N,1-myristyl-2-layryl-3-stearin,0.277372616
,,0.593545695,0,0,13,929,1.623521651,0.93737456,1.478722536,C_{45}H_{86}O_{6},"InChI=1S/C45H86O6/c1-4-7-10-13-16-19-21-22-24-26-29-32-35-38-44(47)50-41-42(40-49-43(46)37-34-31-28-25-18-15-12-9-6-3)51-45(48)39-36-33-30-27-23-20-17-14-11-8-5-2/h42H,4-41H2,1-3H3",PGZSAELMQZLYOA-UHFFFAOYSA-N,"palmitin, 3-lauro-2-myristo-1-",0.302315134
,,0.725989309,0,0,13,578,0.825995877,0.891004096,1.93913027,C_{12}H_{17}F_{9},"InChI=1S/C12H17F9/c1-2-3-4-5-6-7-8-9(13,14)10(15,16)11(17,18)12(19,20)21/h2-8H2,1H3",XUFPCAMLAPZMPS-UHFFFAOYSA-N,"1,1,1,2,2,3,3,4,4-nonafluorododecane",1.413598724
,,0.737419717,0,0,13,944,1.770617884,0.885300434,1.346665593,C_{49}H_{94}O_{6},"InChI=1S/C49H94O6/c1-4-7-10-13-16-19-21-23-24-26-28-31-33-36-39-42-48(51)54-45-46(55-49(52)43-40-37-34-29-18-15-12-9-6-3)44-53-47(50)41-38-35-32-30-27-25-22-20-17-14-11-8-5-2/h46H,4-45H2,1-3H3",QJGLEJCXGFQHJV-UHFFFAOYSA-N,1-palmityl-2-lauryl-3-stearin,0.259431488
,,0.824161372,0,0,13,467,0.215306479,0.861504231,1.717090027,C_{4}H_{6},"InChI=1S/C4H6/c1-2-4-3-1/h1-2H,3-4H2",CFBGXYDUODCMNS-UHFFFAOYSA-N,cyclobutene,6.670801194
,,0.920959354,0,0,13,491.290252,0.345314512,0.845076767,2.629476205,C_{2}HF_{3}O_{2},"InChI=1S/C2HF3O2/c3-2(4,5)1(6)7/h(H,6,7)",DTQVDTLACAAQTR-UHFFFAOYSA-N,trifluoroethanoic acid,3.257632362
,,0.935541546,0,0,13,757,0.937141188,0.847606632,1.067517273,C_{14}H_{20}O,"InChI=1S/C14H20O/c1-12(13-8-4-2-5-9-13)15-14-10-6-3-7-11-14/h2,4-5,8-9,12,14H,3,6-7,10-11H2,1H3",BLBRFFGNEDJWMZ-UHFFFAOYSA-N,(1-cyclohexyloxyethyl)benzene,2.202477328
,,0.987416138,0,0,13,810,1.23144014,0.940122544,1.448326223,C_{25}H_{50},"InChI=1S/C25H50/c1-3-5-7-9-11-14-18-24(19-15-12-10-8-6-4-2)22-23-25-20-16-13-17-21-25/h24-25H,3-23H2,1-2H3",XILMXSAQVLYDBO-UHFFFAOYSA-N,9-(2-cyclohexylethyl)heptadecane,0.891183937
,,1.002221033,0,0,13,879,1.336017986,0.903123334,0.508667828,C_{6}H_{4}I_{2},InChI=1S/C6H4I2/c7-5-2-1-3-6(8)4-5/h1-4H,SFPQFQUXAJOWNF-UHFFFAOYSA-N,"1,3-diiodobenzene",4.727385706
,0.01258123,1.006483314,0,13,13,750,0.776512336,0.755205655,1.460942075,C_{11}H_{26}N_{2},InChI=1S/C11H26N2/c12-10-8-6-4-2-1-3-5-7-9-11-13/h1-13H2,KLNPWTHGTVSSEU-UHFFFAOYSA-N,"1,11-Diaminoundecane",2.123183268
,0.004033881,1.013760074,0,1,13,704,0.794334345,0.887601139,0.960650785,C_{6}H_{4}FI,InChI=1S/C6H4FI/c7-5-1-3-6(8)4-2-5/h1-4H,KGNQDBQYEBMPFZ-UHFFFAOYSA-N,"1,4-fluoroiodobenzene",4.733398969
,,1.056276446,0,0,13,749,0.16887609,0.819806174,3.114815273,C_{6}H_{12}N_{2}O,"InChI=1S/C6H12N2O/c1-7-4-3-5-8(2)6(7)9/h3-5H2,1-2H3",GUVUOGQBMYCBQP-UHFFFAOYSA-N,"1,3-dimethyl-3,4,5,6-tetrahydro-2(1H)-pyrimidinone",3.040153162
,,1.090330539,0,0,13,567.5,0.518617574,0.918859237,1.713559079,C_{8}H_{16},"InChI=1S/C8H16/c1-4-5-6-7-8(2)3/h2,4-7H2,1,3H3",RCBGGJURENJHKV-UHFFFAOYSA-N,2-methyl-1-heptene,2.6305762