AAD_Csat,AAD_hfg,AAD_psat,N_Csat,N_hfg,N_psat,Tc_K,c0,c1,c2,formula,inchi,inchikey,name,pc_MPa
,,0.465434031,0,0,43,613,1.494526858,0.984496785,0.718274457,C_{9}H_{20}O_{2},"InChI=1S/C9H20O2/c1-3-5-7-10-9-11-8-6-4-2/h3-9H2,1-2H3",QLCJOAMJPCOIDI-UHFFFAOYSA-N,dibutoxymethane,1.82267247
,0.438918589,0.919637673,0,6,43,512.7315362,0.204916829,0.846113948,2.612592582,C_{5}H_{12}O,"InChI=1S/C5H12O/c1-3-4-5-6-2/h3-5H2,1-2H3",CXBDYQVECUFKRK-UHFFFAOYSA-N,butyl methyl ether,3.371002036
,,1.022089789,0,0,43,718,1.040560418,0.758800507,0.859229244,C_{10}H_{14}O,"InChI=1S/C10H14O/c1-10(2,3)8-6-4-5-7-9(8)11/h4-7,11H,1-3H3",WJQOZHYUIDYNHM-UHFFFAOYSA-N,2-tert-butyl-1-hydroxybenzene,2.875635437
,0.1473472,1.114751805,0,9,43,563.462056,1.369904882,0.999998271,0.556668818,C_{8}H_{18},"InChI=1S/C8H18/c1-6-7(2)8(3,4)5/h7H,6H2,1-5H3",XTDQDBVBDLYELW-UHFFFAOYSA-N,"2,2,3-trimethylpentane",2.73092509
,,1.123753734,0,0,43,747,0.840602057,0.872615712,1.078687587,C_{6}H_{4}ClNO_{2},InChI=1S/C6H4ClNO2/c7-5-2-1-3-6(4-5)8(9)10/h1-4H,KMAQZIILEGKYQZ-UHFFFAOYSA-N,1-chloro-3-nitrobenzene,3.446053818
,,1.214335833,0,0,43,715.56428,1.463716829,0.833487029,0.717603893,C_{8}H_{10}O,"InChI=1S/C8H10O/c1-6-3-7(2)5-8(9)4-6/h3-5,9H,1-2H3",TUAMRELNJMMDMT-UHFFFAOYSA-N,"3,5-dimethylphenol",3.67842065
,,1.446956804,0,0,43,761,0.938194453,0.880067767,0.952296077,C_{6}H_{4}ClNO_{2},InChI=1S/C6H4ClNO2/c7-5-3-1-2-4-6(5)8(9)10/h1-4H,BFCFYVKQTRLZHA-UHFFFAOYSA-N,1-chloro-2-nitrobenzene,3.319806237
,0.027263702,1.488846075,0,1,43,460.34788,0.333308794,0.841725043,1.492083901,C_{2}H_{5}Cl,"InChI=1S/C2H5Cl/c1-2-3/h2H2,1H3",HRYZWHHZPQKTII-UHFFFAOYSA-N,chloroethane,5.244416108
,,2.440174451,0,0,43,612,0.442967264,0.744493435,1.318603757,C_{8}H_{14},"InChI=1S/C8H14/c1-2-8-6-4-3-5-7-8/h6H,2-5,7H2,1H3",IFVMAGPISVKRAR-UHFFFAOYSA-N,1-ethylcyclohexene,3.373969157
,0.259295305,3.313858772,0,42,43,655,0.438162414,0.850335962,2.543794772,C_{5}H_{14}N_{2},InChI=1S/C5H14N2/c6-4-2-1-3-5-7/h1-7H2,VHRGRCVQAFMJIZ-UHFFFAOYSA-N,"1,5-diaminopentane",5.41579686
,,3.741116005,0,0,43,656.8,0.477191651,0.84635924,2.608552929,C_{10}H_{23}N,"InChI=1S/C10H23N/c1-2-3-4-5-6-7-8-9-10-11/h2-11H2,1H3",MHZGKXUYDGKKIU-UHFFFAOYSA-N,1-decanamine,2.338164759
0.405228786,3.696443605,3.906749136,9,1,43,614.2,1.484833023,0.999965394,0.590847252,C_{9}H_{16},"InChI=1S/C9H16/c1-3-5-7-9-8-6-4-2/h1H,4-9H2,2H3",OSSQSXOTMIGBCF-UHFFFAOYSA-N,1-nonyne,2.994171914
,0.227985437,4.20454972,0,1,43,675,0.462366396,0.865980645,2.310184622,C_{6}H_{6}O_{2},"InChI=1S/C6H6O2/c1-5-2-3-6(4-7)8-5/h2-4H,1H3",OUDFNZMQXZILJD-UHFFFAOYSA-N,5-methylfurfural,5.724575109
,,4.450329399,0,0,43,846,0.737272939,0.889167281,2.020148708,C_{6}H_{2}ClN_{3}O_{6},InChI=1S/C6H2ClN3O6/c7-6-4(9(13)14)1-3(8(11)12)2-5(6)10(15)16/h1-2H,HJRJRUMKQCMYDL-UHFFFAOYSA-N,"1-chloro-2,4,6-trinitrobenzene",2.855349859
,,5.119723378,0,0,43,631.5130385,0.698248905,0.880902985,1.58865458,C_{4}H_{6}O_{4},InChI=1S/C4H6O4/c1-7-3(5)4(6)8-2/h1-2H3,LOMVENUNSWAXEN-UHFFFAOYSA-N,dimethyl ethanedioate,3.999967002
,,5.385357021,0,0,43,736.484035,0.684406603,0.854051107,2.485054318,C_{4}H_{11}NO_{2},"InChI=1S/C4H11NO2/c6-3-1-5-2-4-7/h5-7H,1-4H2",ZBCBWPMODOFKDW-UHFFFAOYSA-N,diethanolamine,4.988350333
,,5.77724144,0,0,43,785,0.716405892,0.680113977,1.89715504,C_{16}H_{32}O_{2},"InChI=1S/C16H32O2/c1-2-3-4-5-6-7-8-9-10-11-12-13-14-15-16(17)18/h2-15H2,1H3,(H,17,18)",IPCSVZSSVZVIGE-UHFFFAOYSA-N,hexadecanoic acid,1.50202015
,,6.928765333,0,0,43,580,0,0.239715749,1.053907502,C_{6}H_{14}O,"InChI=1S/C6H14O/c1-5(7)6(2,3)4/h5,7H,1-4H3",DFOXKPDFWGNLJU-UHFFFAOYSA-N,"3,3-dimethyl-2-butanol",3.459187665
,,12.01620539,0,0,43,697,0.124900601,0.818270894,3.148520056,C_{9}H_{10}O,"InChI=1S/C9H10O/c1-8(7-10)9-5-3-2-4-6-9/h2-8H,1H3",IQVAERDLDAZARL-UHFFFAOYSA-N,2-phenylpropanal,3.223417068
1.034370705,14.18912747,28.69972631,14,2,43,708,0.444436549,0.840631546,1.711155107,C_{12}H_{20},"InChI=1S/C12H20/c1-11-4-9-3-10(5-11)7-12(2,6-9)8-11/h9-10H,3-8H2,1-2H3",CWNOIUTVJRWADX-UHFFFAOYSA-N,"1,3-dimethyltricyclo[3.3.1.1(3,7)]decane",2.855899509
,,0.0477757,0,0,42,634,0.918168116,0.907326012,0.807211979,C_{4}H_{5}NS,"InChI=1S/C4H5NS/c1-4-5-2-3-6-4/h2-3H,1H3",VZWOXDYRBDIHMA-UHFFFAOYSA-N,2-methylthiazole,5.490819493
,0.063728087,0.328165498,0,2,42,567.052774,0.233683366,0.831989256,2.380288808,C_{8}H_{18},"InChI=1S/C8H18/c1-5-8(6-2)7(3)4/h7-8H,5-6H2,1-4H3",DUPUVYJQZSLSJB-UHFFFAOYSA-N,3-ethyl-2-methylpentane,2.702019642
,,0.436671476,0,0,42,646,1.148585197,0.988267378,0.74764325,C_{9}H_{12},"InChI=1S/C9H12/c1-3-9-7-5-4-6-8(9)2/h4-7H,3H2,1-2H3",HYFLWBNQFMXCPA-UHFFFAOYSA-N,1-ethyl-2-methylbenzene,3.213150736
,,0.561627381,0,0,42,610.3,0.605895208,0.806919787,1.233916886,C_{4}H_{9}NO_{2},"InChI=1S/C4H9NO2/c1-3-4(2)5(6)7/h4H,3H2,1-2H3",SUGZATOHBPXTDV-UHFFFAOYSA-N,2-nitrobutane,3.296504548
,0.017480493,0.905470311,0,3,42,587.661,0.495134026,0.83249096,1.300622836,C_{8}H_{16},"InChI=1S/C8H16/c1-7-3-5-8(2)6-4-7/h7-8H,3-6H2,1-2H3/t7-,8-",QRMPKOFEUHIBNM-ZKCHVHJHSA-N,"trans-1,4-dimethylcyclohexane",3.041455237
,0.428226325,0.959928181,0,3,42,518.66,0.213137496,0.830954908,2.884210112,C_{6}H_{18}OSi_{2},"InChI=1S/C6H18OSi2/c1-8(2,3)7-9(4,5)6/h1-6H3",UQEAIHBTYFGYIE-UHFFFAOYSA-N,hexamethyldisiloxane,1.951481814
,,1.359514112,0,0,42,772,0.800666492,0.799060031,1.171189465,C_{6}H_{6}O_{2},"InChI=1S/C6H6O2/c7-5-3-1-2-4-6(5)8/h1-4,7-8H",YCIMNLLNPGFGHC-UHFFFAOYSA-N,"1,2-benzenediol",4.833472441
0.568482214,0.682342603,1.496966433,30,1,42,460,0.422857396,0.842650902,1.191652598,C_{4}H_{8},InChI=1S/C4H8/c1-2-4-3-1/h1-4H2,PMPVIKIVABFJJI-UHFFFAOYSA-N,cyclobutane,4.809271923
,,1.579391808,0,0,42,855,0.581335635,0.81391152,1.335402246,C_{12}H_{10}S,InChI=1S/C12H10S/c1-3-7-11(8-4-1)13-12-9-5-2-6-10-12/h1-10H,LTYMSROWYAPPGB-UHFFFAOYSA-N,diphenyl sulfide,4.354150947
0.28793368,0.473365482,1.763928656,25,5,42,502.8860664,0.607488801,0.829516807,0.923125567,C_{2}H_{6}S,InChI=1S/C2H6S/c1-3-2/h1-2H3,QMMFVYPAHWMCMS-UHFFFAOYSA-N,2-thiapropane,5.562599902
,0.122397358,2.970274334,0,1,42,669.5,0.436772693,0.830263103,2.898318796,C_{12}H_{24}O_{2},"InChI=1S/C12H24O2/c1-3-5-6-7-8-9-10-11-12(13)14-4-2/h3-11H2,1-2H3",RGXWDWUGBIJHDO-UHFFFAOYSA-N,ethyl decanoate,1.800988046
0.360644473,1.108362491,2.994991523,32,3,42,532.833898,1.291763927,0.99999216,0.523529723,C_{3}H_{8}S,"InChI=1S/C3H8S/c1-3-4-2/h3H2,1-2H3",WXEHBUMAEPOYKP-UHFFFAOYSA-N,2-thiabutane,4.602990246
,,3.221345302,0,0,42,714,0.826413926,0.876842701,2.168173288,C_{16}H_{32}O_{2},"InChI=1S/C16H32O2/c1-3-5-6-7-8-9-10-11-12-13-14-15-16(17)18-4-2/h3-15H2,1-2H3",MMKRHZKQPFCLLS-UHFFFAOYSA-N,ethyl tetradecanoate,1.355602104
,,3.441331391,0,0,42,605.36,2.30645701,0.710402554,0.5304026,C_{7}H_{16}O,"InChI=1S/C7H16O/c1-3-5-6-7(8)4-2/h7-8H,3-6H2,1-2H3",RZKSECIXORKHQS-UHFFFAOYSA-N,3-heptanol,3.072445199
0.118016614,,4.50915915,16,0,42,727,0.650394039,0.812670906,1.096685748,C_{10}H_{10},"InChI=1S/C10H10/c1-2-6-10-8-4-3-7-9(10)5-1/h1-3,5-7H,4,8H2",KEIFWROAQVVDBN-UHFFFAOYSA-N,"1,2-dihydronaphthalene",3.690927181
,0.339501954,5.077746173,0,2,42,728,0.40929795,0.885244077,2.064609765,H_{2}O_{2},InChI=1S/H2O2/c1-2/h1-2H,MHAJPDPJQMAIIY-UHFFFAOYSA-N,hydrogen peroxide,22.03673998
,0.259805879,5.46636971,0,1,42,657,0.380646835,0.833321718,2.130801381,C_{7}H_{13}N,"InChI=1S/C7H13N/c1-2-3-4-5-6-7-8/h2-6H2,1H3",SDAXRHHPNYTELL-UHFFFAOYSA-N,heptanenitrile,3.11940279
,,6.125362951,0,0,42,775,1.091524165,0.999553259,0.897562695,C_{13}H_{14},"InChI=1S/C13H14/c1-10(2)12-8-7-11-5-3-4-6-13(11)9-12/h3-10H,1-2H3",TVYVQNHYIHAJTD-UHFFFAOYSA-N,2-(1-methylethyl)naphthalene,2.787744305
,,6.295900436,0,0,42,818,0.49751338,0.864974266,2.324998122,C_{12}H_{11}N,"InChI=1S/C12H11N/c1-3-7-11(8-4-1)13-12-9-5-2-6-10-12/h1-10,13H",DMBHHRLKUKUOEG-UHFFFAOYSA-N,diphenylamine,3.908385173
,,7.286324849,0,0,42,623,1.345691777,0.999761101,0.970472912,C_{5}H_{10}O_{2},"InChI=1S/C5H10O2/c1-3-4(2)5(6)7/h4H,3H2,1-2H3,(H,6,7)",WLAMNBDJUVNPJU-UHFFFAOYSA-N,2-methylbutanoic acid,3.415174563
,,9.0517533,0,0,42,616.7692308,0.279907485,0.843596105,2.653979077,C_{7}H_{14}O,"InChI=1S/C7H14O/c1-2-3-4-5-6-7-8/h7H,2-6H2,1H3",FXHGMKSSBGDXIY-UHFFFAOYSA-N,heptanal,3.158783627
,,29.01439764,0,0,42,770,1.622372394,0.998434674,0.859734235,C_{10}H_{22}O_{2},"InChI=1S/C10H22O2/c11-9-7-5-3-1-2-4-6-8-10-12/h11-12H,1-10H2",FOTKYAAJKYLFFN-UHFFFAOYSA-N,"1,10-decanediol",2.2
,,0.398006942,0,0,41,643,0.764069127,0.895379201,0.921544261,C_{5}H_{10}S,"InChI=1S/C5H10S/c1-5-2-3-6-4-5/h5H,2-4H2,1H3",DLABLFPCTXRQMY-UHFFFAOYSA-N,3-methylthiacyclopentane,4.568750578
0.02792843,0.229178139,0.423975014,9,1,41,561.98176,0.414813847,0.818300256,1.584972613,C_{8}H_{18},"InChI=1S/C8H18/c1-5-7-8(3,4)6-2/h5-7H2,1-4H3",KUMXLFIBWFCMOJ-UHFFFAOYSA-N,"3,3-dimethylhexane",2.654569232
0.199057824,0.570300042,1.185683748,40,3,41,574.611,0.526602166,0.840665495,1.370121675,C_{9}H_{20},"InChI=1S/C9H20/c1-8(2,3)7-9(4,5)6/h7H2,1-6H3",GUMULFRCHLJNDY-UHFFFAOYSA-N,"2,2,4,4-tetramethylpentane",2.485003628
,0.018943537,2.002477599,0,2,41,603.19,1.185228029,0.999892968,0.605630938,C_{8}H_{16},"InChI=1S/C8H16/c1-7-3-5-8(2)6-4-7/h7-8H,3-6H2,1-2H3/t7-,8+",QRMPKOFEUHIBNM-OCAPTIKFSA-N,"cis-1,4-dimethylcyclohexane",3.436084464
,,2.729736486,0,0,41,673,0.398301334,0.853092504,2.499854509,C_{8}H_{11}N,"InChI=1S/C8H11N/c9-7-6-8-4-2-1-3-5-8/h1-5H,6-7,9H2",BHHGXPLMPWCGHP-UHFFFAOYSA-N,2-phenylethylamine,3.624547356
0.207481319,1.009289834,2.838651016,1,1,41,544,0.167008272,0.850148074,2.546858758,C_{6}H_{10},"InChI=1S/C6H10/c1-6-4-2-3-5-6/h4H,2-3,5H2,1H3",ATQUFXWBVZUTKO-UHFFFAOYSA-N,1-methylcyclopentene,4.488167146
,,2.88068043,0,0,41,608,0.525899082,0.890978236,1.999599777,C_{5}H_{12}N_{2},"InChI=1S/C5H12N2/c1-7-4-2-6-3-5-7/h6H,2-5H2,1H3",PVOAHINGSUIXLS-UHFFFAOYSA-N,N-methylpiperazine,5.365941751
,0.338286957,3.186015198,0,1,41,639,0,0.369544593,0.718322704,C_{5}H_{11}NO,"InChI=1S/C5H11NO/c1-6-2-4-7-5-3-6/h2-5H2,1H3",SJRJJKPEHAURKC-UHFFFAOYSA-N,N-methylmorpholine,4.2421668
,,3.276815962,0,0,41,720,0.505437515,0.846920616,2.599253182,C_{15}H_{24},"InChI=1S/C15H24/c1-2-3-4-5-6-7-9-12-15-13-10-8-11-14-15/h8,10-11,13-14H,2-7,9,12H2,1H3",LIXVMPBOGDCSRM-UHFFFAOYSA-N,nonylbenzene,1.841728839
,0.247711787,3.49586509,0,1,41,676,0.302050652,0.859400518,2.405123806,C_{10}H_{16},"InChI=1S/C10H16/c1-2-9-7-4-5-8(6-7)10(9)3-1/h7-10H,1-6H2/t7-,8+,9+,10-",LPSXSORODABQKT-FIRGSJFUSA-N,exo-tetrahydrodicyclopentadiene,3.512814079
,0.046213678,4.1134039,0,24,41,700.4420864,0.492950621,0.791126104,1.91863795,C_{7}H_{18}N_{2},InChI=1S/C7H18N2/c8-6-4-2-1-3-5-7-9/h1-9H2,PWSKHLMYTZNYKO-UHFFFAOYSA-N,"1,7-diaminoheptane",4.004319964
1.229672869,2.061470601,4.59511049,33,1,41,536.9765786,1.389323453,0.999986782,0.391575064,C_{2}H_{3}NO,InChI=1S/C2H3NO/c1-3-2-4/h1H3,HAMGRBXTJNITHG-UHFFFAOYSA-N,methyl isocyanate,9.33410887
,,6.22051776,0,0,41,708,2.392162278,0.996229419,0.468676268,C_{4}H_{10}O_{2},"InChI=1S/C4H10O2/c1-4(2-5)3-6/h4-6H,2-3H2,1H3",QWGRWMMWNDWRQN-UHFFFAOYSA-N,"2-methyl-1,3-propanediol",5.377660505
1.696406708,2.927144899,7.569550291,19,2,41,472.2340804,1.707353228,0.999996539,0.439139979,C_{3}H_{9}N,"InChI=1S/C3H9N/c1-3(2)4/h3H,4H2,1-2H3",JJWLVOIRVHMVIS-UHFFFAOYSA-N,2-propanamine,4.552788296
,,7.579789165,0,0,41,688,0.869189184,0.691988553,0.583469855,C_{4}H_{5}NS,"InChI=1S/C4H5NS/c1-2-3-5-4-6/h2H,1,3H2",ZOJBYZNEUISWFT-UHFFFAOYSA-N,allyl isothiocyanate,3.997119618
,,0.155906789,0,0,40,693,0.2805565,0.826681099,1.939883871,C_{6}H_{8}O,"InChI=1S/C6H8O/c7-6-4-2-1-3-5-6/h2,4H,1,3,5H2",FWFSEYBSWVRWGL-UHFFFAOYSA-N,2-cyclohexen-1-one,4.820123431
,,0.226574383,0,0,40,803.149,0.355150083,0.818431949,1.691292532,C_{9}H_{7}N,InChI=1S/C9H7N/c1-2-4-9-7-10-6-5-8(9)3-1/h1-7H,AWJUIBRHMBBTKR-UHFFFAOYSA-N,isoquinoline,5.04763643
,,0.326696965,0,0,40,838,0.232867607,0.823450632,2.810850246,C_{12}H_{11}N,"InChI=1S/C12H11N/c13-12-9-5-4-8-11(12)10-6-2-1-3-7-10/h1-9H,13H2",TWBPWBPGNQWFSJ-UHFFFAOYSA-N,"2-amino-1,1'-biphenyl",3.907471344
,0.157567064,0.497429726,0,3,40,493,0.136782531,0.844702732,2.636005097,C_{2}Br_{2}F_{4},"InChI=1S/C2Br2F4/c3-1(5,6)2(4,7)8",KVBKAPANDHPRDG-UHFFFAOYSA-N,"1,2-dibromotetrafluoroethane",3.668070409
,,1.22644549,0,0,40,596,2.609795578,0.856043116,0.391861983,C_{6}H_{12}O,"InChI=1S/C6H12O/c1-3-5-6(7)4-2/h4,6-7H,2-3,5H2,1H3",BVOSSZSHBZQJOI-UHFFFAOYSA-N,1-hexen-3-ol,3.596944657
,,1.69779466,0,0,40,675,0.966480074,0.910584506,0.854288353,C_{7}H_{12}O,InChI=1S/C7H12O/c8-7-5-3-1-2-4-6-7/h1-6H2,CGZZMOTZOONQIA-UHFFFAOYSA-N,cycloheptanone,3.443221318
0.224300313,0.48289653,1.833098269,1,7,40,554.2,1.186035568,0.999989568,0.520202333,C_{2}H_{5}I,"InChI=1S/C2H5I/c1-2-3/h2H2,1H3",HVTICUPFWKNHNG-UHFFFAOYSA-N,iodoethane,4.858407511
,0.630792061,1.837509698,0,6,40,500.2414786,0.232637855,0.850367516,2.543271137,C_{5}H_{12}O,"InChI=1S/C5H12O/c1-3-5-6-4-2/h3-5H2,1-2H3",NVJUHMXYKCUMQA-UHFFFAOYSA-N,ethyl propyl ether,3.357852297
,,2.074796999,0,0,40,539.7,0.712361961,0.872651538,1.393472736,C_{6}H_{14}O_{2},"InChI=1S/C6H14O2/c1-4-7-6(3)8-5-2/h6H,4-5H2,1-3H3",DHKHKXVYLBGOIT-UHFFFAOYSA-N,"1,1-diethoxyethane",3.22014846
,3.252864537,2.36701476,0,1,40,605,0.215423296,0.843499995,2.65653384,C_{6}H_{10}O,"InChI=1S/C6H10O/c1-5(2)4-6(3)7/h4H,1-3H3",SHOJXDKTYKFBRD-UHFFFAOYSA-N,4-methyl-3-penten-2-one,3.851214839
,0.2571746,2.528148152,0,2,40,682.02446,0.093910466,0.839363807,2.728632152,CHBr_{3},InChI=1S/CHBr3/c2-1(3)4/h1H,DIKBFYAXUHHXCS-UHFFFAOYSA-N,tribromomethane,5.779365514
,,2.640392941,0,0,40,678.5,0.89300728,0.811815434,1.235763763,C_{11}H_{22}O,"InChI=1S/C11H22O/c1-3-5-7-9-11(12)10-8-6-4-2/h3-10H2,1-2H3",ZPQAKYPOZRXKFA-UHFFFAOYSA-N,undecan-6-one,2.015286839
,,2.718916613,0,0,40,561.43878,0.474662161,0.929773251,1.578961213,C_{5}H_{8}O,"InChI=1S/C5H8O/c1-2-4-6-5-3-1/h2,4H,1,3,5H2",BUDQDWGNQVEFAC-UHFFFAOYSA-N,"2,3-dihydro-4H-pyran",4.60604443
,,3.221790971,0,0,40,605,0.405394952,0.84766946,2.586338844,C_{5}H_{10}O_{3},"InChI=1S/C5H10O3/c1-3-8-5(7)4(2)6/h4,6H,3H2,1-2H3",LZCLXQDLBQLTDK-UHFFFAOYSA-N,DL-ethyl lactate,3.771221483
,,3.43677807,0,0,40,685,0.702276263,0.862371737,1.368348596,C_{11}H_{16},"InChI=1S/C11H16/c1-5-11-9(3)6-8(2)7-10(11)4/h6-7H,5H2,1-4H3",HYCOYJYBHKAKGQ-UHFFFAOYSA-N,"1-ethyl-2,4,6-trimethylbenzene",2.611067803
,,3.829852179,0,0,40,595.7,0.542084851,0.802025701,1.42586486,C_{9}H_{20}O,"InChI=1S/C9H20O/c1-8(2,3)7-9(4,5)10-6/h7H2,1-6H3",IKZVAPMTXDXWMX-UHFFFAOYSA-N,"methyl 1,1,3,3-tetramethylbutyl ether",2.415106533
0.381726368,2.912338792,3.966855049,33,1,40,608.6,1.365543086,0.999984442,0.596626398,C_{9}H_{20},"InChI=1S/C9H20/c1-5-9(6-2,7-3)8-4/h5-8H2,1-4H3",BGXXXYLRPIRDHJ-UHFFFAOYSA-N,"3,3-diethylpentane",2.667582294
0.45612434,0.254046147,4.775613379,56,1,40,345.0290692,0.720495592,0.836320305,1.032319426,C_{3}F_{8},"InChI=1S/C3F8/c4-1(5,2(6,7)8)3(9,10)11",QYSGYZVSCZSLHT-UHFFFAOYSA-N,octafluoropropane,2.670844301
,0.092507675,4.961035512,0,12,40,661,0.384579409,0.810741301,2.781781289,C_{10}H_{18}O_{4},"InChI=1S/C10H18O4/c1-7(2)13-9(11)5-6-10(12)14-8(3)4/h7-8H,5-6H2,1-4H3",YPLYFEUBZLLLIY-UHFFFAOYSA-N,bis(1-methylethyl) butanedioate,1.966690479
,,6.388322715,0,0,40,791,0.625398021,0.913594241,1.76370082,C_{6}H_{5}Cl_{2}N,"InChI=1S/C6H5Cl2N/c7-4-1-5(8)3-6(9)2-4/h1-3H,9H2",UQRLKWGPEVNVHT-UHFFFAOYSA-N,"3,5-dichloroaniline",5.134630653
,,8.194948278,0,0,40,803,2.302873555,0.999555934,0.681450443,C_{18}H_{36}O_{2},"InChI=1S/C18H36O2/c1-2-3-4-5-6-7-8-9-10-11-12-13-14-15-16-17-18(19)20/h2-17H2,1H3,(H,19,20)",QIQXTHQIDYTFRH-UHFFFAOYSA-N,octadecanoic acid,1.330797287
,,0.249212131,0,0,39,678,0.547865845,0.82601427,1.640238867,C_{8}H_{7}FO_{2},"InChI=1S/C8H7FO2/c1-11-8(10)6-2-4-7(9)5-3-6/h2-5H,1H3",MSEBQGULDWDIRW-UHFFFAOYSA-N,methyl p-fluorobenzoate,3.476122345
,,0.51706381,0,0,39,685,0.510337501,0.826222542,1.321180831,C_{8}H_{6}O,InChI=1S/C8H6O/c1-2-4-8-7(3-1)5-6-9-8/h1-6H,IANQTJSKSUMEQM-UHFFFAOYSA-N,"2,3-benzofuran",4.482380998
,,0.77598618,0,0,39,882,0.497827845,0.815236372,1.77986924,C_{15}H_{12},"InChI=1S/C15H12/c1-11-5-4-7-13-10-9-12-6-2-3-8-14(12)15(11)13/h2-10H,1H3",LOCGAKKLRVLQAM-UHFFFAOYSA-N,4-methylphenanthrene,2.481675543
,,0.856147879,0,0,39,637,0.805836767,0.91528269,0.878262303,C_{5}H_{10}S,"InChI=1S/C5H10S/c1-5-3-2-4-6-5/h5H,2-4H2,1H3",AJPGNQYBSTXCJE-UHFFFAOYSA-N,2-methylthiacyclopentane,4.736663183
,,0.911758163,0,0,39,778,0.647682488,0.762792267,1.315420519,C_{10}H_{9}N,"InChI=1S/C10H9N/c1-8-4-5-9-3-2-6-11-10(9)7-8/h2-7H,1H3",KDYVCOSVYOSHOL-UHFFFAOYSA-N,7-methylquinoline,3.885264943
,,1.081586175,0,0,39,461.6,0.400303131,0.826802372,1.529418988,C_{2}HCl_{2}F_{3},"InChI=1S/C2HCl2F3/c3-1(5)2(4,6)7/h1H",YMRMDGSNYHCUCL-UHFFFAOYSA-N,"1,2-dichloro-1,1,2-trifluoroethane",3.757542909
,1.038677142,1.335503842,0,2,39,856,0.791142937,0.831806071,1.285090051,C_{16}H_{12},InChI=1S/C16H12/c1-2-7-13(8-3-1)16-12-6-10-14-9-4-5-11-15(14)16/h1-12H,IYDMICQAKLQHLA-UHFFFAOYSA-N,1-phenylnaphthalene,2.561234127
,,1.3785402,0,0,39,762.9248,0.173825522,0.825823282,2.987327464,AlBr_{3},InChI=1S/Al.3BrH/h;3*1H/q+3;;;/p-3,PQLAYKMGZDUDLQ-UHFFFAOYSA-K,aluminum bromide,2.893721908
,,2.293772906,0,0,39,601,1.234198091,0.275949146,0.790791826,C_{7}H_{16}O,"InChI=1S/C7H16O/c1-4-7(8,5-2)6-3/h8H,4-6H2,1-3H3",XKIRHOWVQWCYBT-UHFFFAOYSA-N,3-ethyl-3-pentanol,3.173304142
,0.084577639,2.411132777,0,1,39,663,1.570650238,0.999968983,0.910603814,C_{8}H_{16}O_{2},"InChI=1S/C8H16O2/c1-3-5-7(6-4-2)8(9)10/h7H,3-6H2,1-2H3,(H,9,10)",NIJJYAXOARWZEE-UHFFFAOYSA-N,2-propylpentanoic acid,2.580799363
,,2.488953469,0,0,39,662,1.446821507,0.999317045,0.830226327,C_{6}H_{15}NO_{2},"InChI=1S/C6H15NO2/c1-7(2)3-5-9-6-4-8/h8H,3-6H2,1-2H3",YSAANLSYLSUVHB-UHFFFAOYSA-N,2-(2-dimethylaminoethoxu)ethanol,3.108994521
,,2.50556022,0,0,39,666,0.426352388,0.766656918,1.852998164,C_{6}H_{10}O_{3},"InChI=1S/C6H10O3/c1-5(7)3-4-6(8)9-2/h3-4H2,1-2H3",UAGJVSRUFNSIHR-UHFFFAOYSA-N,methyl levulinate,2.942807912
,,3.269362423,0,0,39,731,0.272241423,0.833545467,2.827258872,C_{6}H_{5}ClO,"InChI=1S/C6H5ClO/c7-5-1-3-6(8)4-2-5/h1-4,8H",WXNZTHHGJRFXKQ-UHFFFAOYSA-N,4-chlorophenol,5.11384953
,,4.009434647,0,0,39,686,1.434380093,0.999591891,0.657180815,C_{11}H_{16},"InChI=1S/C11H16/c1-5-11-7-9(3)8(2)6-10(11)4/h6-7H,5H2,1-4H3",IYFUQKGDILUVJG-UHFFFAOYSA-N,"1-ethyl-2,4,5-trimethylbenzene",2.436567278
,,4.89002787,0,0,39,787,0.744542759,0.887153884,1.227742466,C_{12}H_{22}O,InChI=1S/C12H22O/c13-12-10-8-6-4-2-1-3-5-7-9-11-12/h1-11H2,SXVPOSFURRDKBO-UHFFFAOYSA-N,cyclododecanone,2.64761111
,,0.153927123,0,0,38,797,1.319820685,0.999859946,0.869640726,C_{8}H_{3}ClO_{3},InChI=1S/C8H3ClO3/c9-4-1-2-5-6(3-4)8(11)12-7(5)10/h1-3H,BTTRMCQEPDPCPA-UHFFFAOYSA-N,4-chlorophthalic anhydride,3.578729546
,,0.173717561,0,0,38,380.085392,0.170226395,0.838108072,2.67727037,C_{3}H_{3}F_{5},"InChI=1S/C3H3F5/c1-2(4,5)3(6,7)8/h1H3",FDOPVENYMZRARC-UHFFFAOYSA-N,"1,1,1,2,2-pentafluoropropane",3.135507425
,,0.219244552,0,0,38,748,0.527964324,0.840028368,1.907694645,C_{8}H_{7}BrO,"InChI=1S/C8H7BrO/c1-6(10)7-2-4-8(9)5-3-7/h2-5H,1H3",WYECURVXVYPVAT-UHFFFAOYSA-N,4'-bromoacetophenone,3.368507991
,,0.280345593,0,0,38,787,0.460176604,0.815445288,1.536004805,C_{10}H_{9}N,"InChI=1S/C10H9N/c1-8-4-2-5-9-6-3-7-11-10(8)9/h2-7H,1H3",JRLTTZUODKEYDH-UHFFFAOYSA-N,8-methylquinoline,4.21255976
,,0.539515462,0,0,38,576.9,0.241074495,0.842106956,2.13502075,C_{5}H_{12}S,"InChI=1S/C5H12S/c1-5(2,3)4-6/h6H,4H2,1-3H3",LSUXMVNABVPWMF-UHFFFAOYSA-N,"2,2-dimethyl-1-propanethiol",3.800267157
,,0.756924644,0,0,38,509.3,1.001885872,0.923188929,0.77201678,C_{6}H_{12},"InChI=1S/C6H12/c1-4-5-6(2)3/h5H,4H2,1-3H3",JMMZCWZIJXAGKW-UHFFFAOYSA-N,2-methyl-2-pentene,3.25808896
,,0.878563743,0,0,38,535.5,1.068864162,0.998748072,0.789508939,C_{4}H_{6}O_{2},"InChI=1S/C4H6O2/c1-3-4(5)6-2/h3H,1H2,2H3",BAPJBEWLBFYGME-UHFFFAOYSA-N,methyl propenoate,4.158400663
,,1.017783209,0,0,38,634.9,0.624473386,0.803657851,1.646509689,C_{9}H_{18}O_{2},"InChI=1S/C9H18O2/c1-3-4-5-6-7-8-11-9(2)10/h3-8H2,1-2H3",ZCZSIDMEHXZRLG-UHFFFAOYSA-N,heptyl ethanoate,2.144883479
,0.019893979,1.457735664,0,1,38,544.6,0.694443871,0.827064996,1.144700049,C_{8}H_{18}O,"InChI=1S/C8H18O/c1-7(2,3)9-8(4,5)6/h1-6H3",AQEFLFZSWDEAIP-UHFFFAOYSA-N,di-tert-butyl ether,2.349620108