AAD_Csat,AAD_hfg,AAD_psat,N_Csat,N_hfg,N_psat,Tc_K,c0,c1,c2,formula,inchi,inchikey,name,pc_MPa
,,0.96251258,0,0,20,826,1.123749437,0.961458675,0.864570823,C_{14}H_{12},"InChI=1S/C14H12/c1-10-11-6-2-4-8-13(11)14-9-5-3-7-12(10)14/h2-10H,1H3",ZVEJRZRAUYJYCO-UHFFFAOYSA-N,9-methyl-9H-fluorene,3.11919338
,0.022018991,0.970433341,0,2,20,691,0.215863001,0.812515041,2.682152362,C_{6}H_{12}Cl_{2},InChI=1S/C6H12Cl2/c7-5-3-1-2-4-6-8/h1-6H2,OVISMSJCKCDOPU-UHFFFAOYSA-N,"1,6-dichlorohexane",3.042623024
,,1.021200806,0,0,20,746,1.436810959,0.999860828,0.693472342,C_{14}H_{22}O,"InChI=1S/C14H22O/c1-13(2,3)10-8-7-9-11(12(10)15)14(4,5)6/h7-9,15H,1-6H3",DKCPKDPYUFEZCP-UHFFFAOYSA-N,"2,6-di-tert-butylphenol",2.396368817
,,1.151804188,0,0,20,589,0.740061731,0.999316304,0.92669555,C_{7}H_{10},"InChI=1S/C7H10/c1-2-7-4-3-6(1)5-7/h1-2,6-7H,3-5H2",JFNLZVQOOSMTJK-UHFFFAOYSA-N,bicyclo[2.2.1]hept-2-ene,4.829449839
,,1.163171893,0,0,20,538.6,0.528046405,0.920010078,1.702696376,C_{7}H_{14},"InChI=1S/C7H14/c1-3-5-7-6-4-2/h5,7H,3-4,6H2,1-2H3/b7-5+",WZHKDGJSXCTSCK-FNORWQNLSA-N,"3-heptene, (E)-",2.960062528
0.729946251,,1.320261357,8,0,20,574,0.31443798,0.844715774,1.987548174,C_{4}H_{6}O,"InChI=1S/C4H6O/c1-2-3-4-5/h2-4H,1H3/b3-2+",MLUCVPSAIODCQM-NSCUHMNNSA-N,(E)-2-butenal,4.245811593
,,1.371020483,0,0,20,816,1.277834468,0.767610618,0.573586858,C_{12}H_{18}O,"InChI=1S/C12H18O/c1-8(13)12-5-9-2-10(6-12)4-11(3-9)7-12/h9-11H,2-7H2,1H3",DACIGVIOAFXPHW-UHFFFAOYSA-N,1-adamantyl methyl ketone,3.513213299
,,1.423579894,0,0,20,601.108,0.066871038,0.001136618,0.596611612,Cl_{3}OP,"InChI=1S/Cl3OP/c1-5(2,3)4",XHXFXVLFKHQFAL-UHFFFAOYSA-N,phosphoryl trichloride,4.964971953
,0.007682762,1.432348381,0,1,20,595,1.06250187,0.998657598,0.658707269,CH_{2}Br_{2},InChI=1S/CH2Br2/c2-1-3/h1H2,FJBFPHVGVWTDIP-UHFFFAOYSA-N,dibromomethane,5.966009397
,,1.500516708,0,0,20,545,1.314373078,0.98537843,0.61012146,C_{7}H_{14},"InChI=1S/C7H14/c1-4-6-7(3)5-2/h6H,4-5H2,1-3H3/b7-6-",FHHSSXNRVNXTBG-SREVYHEPSA-N,(Z)-3-methyl-3-hexene,3.129251962
,,1.554512002,0,0,20,574.8,0.657900541,0.916992389,1.73142133,C_{9}H_{20},"InChI=1S/C9H20/c1-4-6-8-9(3)7-5-2/h9H,4-8H2,1-3H3",DOGIHOCMZJUJNR-UHFFFAOYSA-N,4-methyloctane,2.363864168
,,1.617956994,0,0,20,698,0.768794746,0.864463609,1.143938261,C_{9}H_{14}O_{2},"InChI=1S/C9H14O2/c1-2-8-4-3-7(1)9(8)10-5-6-11-9/h7-8H,1-6H2",ZOAZIDHHHOEFHR-UHFFFAOYSA-N,"spiro[bicyclo[2.2.1]heptane-7,2'-[1,3]dioxolane]",3.695634035
,0.092993728,1.845195966,0,1,20,654.8,1.01321781,0.999976325,0.787882842,C_{6}H_{4}BrF,InChI=1S/C6H4BrF/c7-5-1-3-6(8)4-2-5/h1-4H,AITNMTXHTIIIBB-UHFFFAOYSA-N,1-bromo-4-fluorobenzene,4.17228909
,0.07022197,1.902744295,0,18,20,625,0.43461708,0.836893508,2.773129315,C_{8}H_{14}O_{4},"InChI=1S/C8H14O4/c1-5(2)11-7(9)8(10)12-6(3)4/h5-6H,1-4H3",ITHNIFCFNUZYLQ-UHFFFAOYSA-N,diisopropyl oxalate,2.512814667
,,1.909125205,0,0,20,723.162,1.198130224,0.999861973,0.77434147,C_{8}H_{7}N,"InChI=1S/C8H7N/c1-7-2-4-8(6-9)5-3-7/h2-5H,1H3",VCZNNAKNUVJVGX-UHFFFAOYSA-N,4-cyanotoluene,3.56035233
,,1.936252684,0,0,20,704.7,1.037365697,0.935511098,1.503593838,C_{14}H_{28}O_{2},"InChI=1S/C14H28O2/c1-3-5-6-7-8-9-10-11-12-13-14(15)16-4-2/h3-13H2,1-2H3",MMXKVMNBHPAILY-UHFFFAOYSA-N,ethyl dodecanoate,1.608800399
,,1.958848472,0,0,20,694,0.479421895,0.835803074,2.792265788,C_{11}H_{20}O_{4},"InChI=1S/C11H20O4/c1-3-5-7-14-10(12)9-11(13)15-8-6-4-2/h3-9H2,1-2H3",NFKGQHYUYGYHIS-UHFFFAOYSA-N,"dibutyl 1,3-propanedioate",1.950954563
,0.730346709,1.972651287,0,2,20,804,1.245774396,0.99978972,0.777931711,C_{11}H_{9}N,InChI=1S/C11H9N/c1-2-5-10(6-3-1)11-7-4-8-12-9-11/h1-9H,HJKGBRPNSJADMB-UHFFFAOYSA-N,3-phenylpyridine,3.569809377
,,1.99864718,0,0,20,720,1.377987039,0.982313851,0.728758317,C_{11}H_{14}O_{2},"InChI=1S/C11H14O2/c1-12-11(13-2)8-10(11)9-6-4-3-5-7-9/h3-7,10H,8H2,1-2H3",WZQXCQFRVQAFBO-UHFFFAOYSA-N,"(2,2-dimethoxycyclopropyl)- benzene",2.966524068
,,2.112382178,0,0,20,738,0.629369082,0.910584285,1.793222103,C_{10}H_{14}O,"InChI=1S/C10H14O/c1-6-5-7(2)9(4)10(11)8(6)3/h5,11H,1-4H3",KLAQSPUVCDBEGF-UHFFFAOYSA-N,"2,3,5,6-tetramethylphenol",3.079289874
,,2.126254875,0,0,20,603,0.693790083,0.923662566,1.669607895,C_{7}H_{14}O_{2},"InChI=1S/C7H14O2/c1-6(2)7(3)8-4-5-9-7/h6H,4-5H2,1-3H3",IGZQZZODNMBJLU-UHFFFAOYSA-N,"1,3-dioxolane, 2-isopropyl-2-methyl-",3.613847193
,,2.198604827,0,0,20,663,1.097722237,0.516248582,0.468750427,C_{3}H_{5}NS,"InChI=1S/C3H5NS/c1-2-4-3-5/h2H2,1H3",HBNYJWAFDZLWRS-UHFFFAOYSA-N,ethyl isothiocyanate,4.335453796
,,2.208500592,0,0,20,662,1.448571726,0.999945967,0.562194801,C_{6}H_{14}S_{2},"InChI=1S/C6H14S2/c1-5(2)7-8-6(3)4/h5-6H,1-4H3",LZAZXBXPKRULLB-UHFFFAOYSA-N,"2,5-dimethyl-3,4-dithiahexane",3.076146679
,,2.230147391,0,0,20,568.9,0.546887148,0.920713969,1.696470354,C_{8}H_{16},"InChI=1S/C8H16/c1-4-5-6-7-8(2)3/h7H,4-6H2,1-3H3",WEPNJTDVIIKRIK-UHFFFAOYSA-N,2-methyl-2-heptene,2.637831542
,,2.351831112,0,0,20,625.05849,1.45271092,0.532349278,0.823310181,C_{8}H_{18}O,"InChI=1S/C8H18O/c1-3-5-7-8(9)6-4-2/h8-9H,3-7H2,1-2H3",WOFPPJOZXUTRAU-UHFFFAOYSA-N,4-octanol,2.812182907
,,2.386224226,0,0,20,576.9,0.775887299,0.963704345,1.225208646,C_{9}H_{20},"InChI=1S/C9H20/c1-5-6-9(4)7-8(2)3/h8-9H,5-7H2,1-4H3",AUKVIBNBLXQNIZ-UHFFFAOYSA-N,"2,4-dimethylheptane",2.358408001
,0.009652711,2.431409984,0,1,20,648,0.393060738,0.837407974,2.34707203,C_{6}H_{10}O_{3},"InChI=1S/C6H10O3/c1-3-9-6(8)4-5(2)7/h3-4H2,1-2H3",XYIBRDXRRQCHLP-UHFFFAOYSA-N,ethyl 3-oxobutanoate,3.384383524
,,2.464041699,0,0,20,734,1.512318279,0.999964802,0.765231916,C_{15}H_{30},"InChI=1S/C15H30/c1-2-3-4-5-6-7-9-12-15-13-10-8-11-14-15/h15H,2-14H2,1H3",CLMFECCMAVQYQA-UHFFFAOYSA-N,nonylcyclohexane,1.625174105
,0.125127142,2.526977408,0,1,20,665,2.414410603,0.787929099,0.323660096,C_{8}H_{16}O_{2},"InChI=1S/C8H16O2/c1-9-8(10-2)6-4-3-5-7-8/h3-7H2,1-2H3",XPIJMQVLTXAGME-UHFFFAOYSA-N,"1,1-dimethoxycyclohexane",3.737001113
,,2.764230469,0,0,20,844,0.739919081,0.892220177,1.985668541,C_{6}H_{6}O_{3},"InChI=1S/C6H6O3/c7-4-2-1-3-5(8)6(4)9/h1-3,7-9H",WQGWDDDVZFFDIG-UHFFFAOYSA-N,"1,2,3-benzenetriol",7.711443028
,,2.854910609,0,0,20,617,0.697387879,0.914784518,1.752430988,C_{3}H_{6}O_{3},"InChI=1S/C3H6O3/c1-6-3(5)2-4/h4H,2H2,1H3",GSJFXBNYJCXDGI-UHFFFAOYSA-N,methyl hydroxyethanoate,5.155882199
,,3.429240158,0,0,20,707,2.288621954,0.395963658,0.516539799,C_{9}H_{12}O,"InChI=1S/C9H12O/c1-6-4-7(2)9(10)8(3)5-6/h4-5,10H,1-3H3",BPRYUXCVCCNUFE-UHFFFAOYSA-N,"2,4,6-trimethylphenol",2.295225714
,,3.497253643,0,0,20,751.4346054,0.937713871,0.914093844,1.757733269,C_{8}H_{8}O_{3},"InChI=1S/C8H8O3/c1-11-8(10)6-2-4-7(9)5-3-6/h2-5,9H,1H3",LXCFILQKKLGQFO-UHFFFAOYSA-N,methyl 4-hydroxybenzoate,2.121239379
,,3.905944448,0,0,20,766,0.963871677,0.997349969,1.013313327,C_{6}H_{6}ClN,"InChI=1S/C6H6ClN/c7-5-1-3-6(8)4-2-5/h1-4H,8H2",QSNSCYSYFYORTR-UHFFFAOYSA-N,4-chlorobenzenamine,4.992958039
,,4.1806694,0,0,20,694,1.289091973,0.999940212,0.612489166,C_{7}H_{7}Br,"InChI=1S/C7H7Br/c1-6-2-4-7(8)5-3-6/h2-5H,1H3",ZBTMRBYMKUEVEU-UHFFFAOYSA-N,4-bromotoluene,3.777239541
0.202889015,0.309920685,4.268613929,79,2,20,464.440552,1.022929737,0.914385184,0.696663015,C_{4}H_{10}O,"InChI=1S/C4H10O/c1-4(2)5-3/h4H,1-3H3",RMGHERXMTMUMMV-UHFFFAOYSA-N,isopropyl methyl ether,3.76199412
,,4.30194915,0,0,20,879,1.718353258,0.982463228,0.823186182,C_{13}H_{14}N_{2},"InChI=1S/C13H14N2/c14-12-5-1-10(2-6-12)9-11-3-7-13(15)8-4-11/h1-8H,9,14-15H2",YBRVSVVVWCFQMG-UHFFFAOYSA-N,"4,4'-methylenebisbenzenamine",2.987719852
,,4.707106743,0,0,20,657,0.621643963,0.915863869,1.74204006,CH_{3}ClO_{2}S,"InChI=1S/CH3ClO2S/c1-5(2,3)4/h1H3",QARBMVPHQWIHKH-UHFFFAOYSA-N,methanesulfonyl chloride,6.626491718
,,4.83249072,0,0,20,624,0.391976435,0.763875462,1.892781463,C_{6}F_{5}I,InChI=1S/C6F5I/c7-1-2(8)4(10)6(12)5(11)3(1)9,OPYHNLNYCRZOGY-UHFFFAOYSA-N,"benzene, pentafluoroiodo-",3.884389322
,,4.997773968,0,0,20,696,0,0.214858178,0.742618324,C_{8}H_{16}O_{2},"InChI=1S/C8H16O2/c1-2-3-4-5-6-7-10-8-9/h8H,2-7H2,1H3",XEAMDSXSXYAICO-UHFFFAOYSA-N,heptyl methanoate,2.801022359
,,5.015720511,0,0,20,703,1.000703914,0.890517883,1.001169767,C_{8}H_{11}N,"InChI=1S/C8H11N/c1-6-3-4-8(9)7(2)5-6/h3-5H,9H2,1-2H3",CZZZABOKJQXEBO-UHFFFAOYSA-N,"1-amino-2,4-dimethylbenzene",3.077908978
,,5.239393914,0,0,20,670,0.471651732,0.8619339,2.368223986,C_{5}H_{8}O_{2},"InChI=1S/C5H8O2/c6-4-2-1-3-5-7/h4-5H,1-3H2",SXRSQZLOMIGNAQ-UHFFFAOYSA-N,"1,5-pentanedial",5.035396253
0.785387745,0.226662684,5.60391562,49,4,20,549.5,1.369734946,0.999954057,0.496180254,C_{4}H_{10}S,"InChI=1S/C4H10S/c1-3-4(2)5/h4-5H,3H2,1-2H3",LOCHFZBWPCLPAN-UHFFFAOYSA-N,2-butanethiol,3.806016296
,,5.753254555,0,0,20,609.4,0.60799612,0.915053091,1.749817401,C_{5}H_{7}N,"InChI=1S/C5H7N/c1-2-3-4-5-6/h2-3H,4H2,1H3",UVKXJAUUKPDDNW-UHFFFAOYSA-N,3-pentenenitrile,4.129248979
,,5.864434874,0,0,20,720,1.42391398,0.941796816,0.823353273,C_{12}H_{26}S,"InChI=1S/C12H26S/c1-3-5-7-9-11-13-12-10-8-6-4-2/h3-12H2,1-2H3",LHNRHYOMDUJLLM-UHFFFAOYSA-N,7-thiatridecane,1.776110232
,,6.90444168,0,0,20,708,0.751303891,0.843245057,1.309156373,C_{8}H_{11}N,"InChI=1S/C8H11N/c1-2-7-5-3-4-6-8(7)9/h3-6H,2,9H2,1H3",MLPVBIWIRCKMJV-UHFFFAOYSA-N,2-ethylaniline,3.886577034
,,6.904721654,0,0,20,925,0,0.292719966,0.557262808,C_{6}H_{5}Cl_{2}OP,"InChI=1S/C6H5Cl2OP/c7-10(8,9)6-4-2-1-3-5-6/h1-5H",IBDMRHDXAQZJAP-UHFFFAOYSA-N,phenylphosphonic dichloride,4.133443341
,0.936735095,7.150832507,0,5,20,543.9,0.35274817,0.853483902,2.494251121,C_{6}H_{15}N,"InChI=1S/C6H15N/c1-3-5-6-7-4-2/h7H,3-6H2,1-2H3",QHCCDDQKNUYGNC-UHFFFAOYSA-N,"1-butanamine, N-ethyl-",3.145870404
,,7.388778684,0,0,20,607,1.285928563,0.999890584,0.809560197,C_{8}H_{18}O,"InChI=1S/C8H18O/c1-6-8(5,9)7(2,3)4/h9H,6H2,1-5H3",KLIHWYNSISMOMR-UHFFFAOYSA-N,"2,2,3-trimethyl-3-pentanol",2.998779812
0.108504201,2.635542533,8.374806628,30,1,20,587.67,0.789625423,0.846611153,0.922953582,C_{8}H_{16},"InChI=1S/C8H16/c1-7-4-3-5-8(2)6-7/h7-8H,3-6H2,1-2H3/t7-,8+",SGVUHPSBDNVHKL-OCAPTIKFSA-N,"cis-1,3-dimethylcyclohexane",3.008045605
,,10.02711808,0,0,20,499.9,0.484314867,0.923733342,1.667017356,C_{4}H_{8}O,"InChI=1S/C4H8O/c1-4(2)3-5-4/h3H2,1-2H3",GELKGHVAFRCJNA-UHFFFAOYSA-N,"1,1-dimethyloxirane",4.347051417
,,12.23215412,0,0,20,746,0.634022015,0.924149629,1.661812377,C_{8}H_{9}I,"InChI=1S/C8H9I/c1-6-3-4-8(9)7(2)5-6/h3-5H,1-2H3",BUNKQJAMHYKQIM-UHFFFAOYSA-N,"1-iodo-2,4-dimethylbenzene",3.748570311
,,14.54606131,0,0,20,761,0.799519779,0.999770185,0.780145549,C_{2}H_{2}I_{2},InChI=1S/C2H2I2/c3-1-2-4/h1-2H/b2-1-,CVOGMKGEVNGRSK-UPHRSURJSA-N,"(Z)-1,2-diiodoethene",4.86431774
0.745287562,,14.60362302,50,0,20,583.5,1.406981321,0.999939983,0.525530114,C_{5}H_{12}S,"InChI=1S/C5H12S/c1-3-5-6-4-2/h3-5H2,1-2H3",ZDDDFDQTSXYYSE-UHFFFAOYSA-N,3-thiahexane,3.373823045
,,22.59801746,0,0,20,693,0,0.37109909,0.781051399,C_{10}H_{12},"InChI=1S/C10H12/c1-2-9-7-4-5-8(6-7)10(9)3-1/h1-2,4-5,7-10H,3,6H2",HECLRDQVFMWTQS-UHFFFAOYSA-N,"3a,4,7,7a-tetrahydro-4,7-methanoindene",3.364538305
,6.629383467,30.33645708,0,2,20,828,0,0.411202419,0.512784552,C_{2}H_{4}N_{4},"InChI=1S/C2H4N4/c1-6-4-2-3-5-6/h2H,1H3",VRESBNUEIKZECD-UHFFFAOYSA-N,N-methyl-2H-tetrazole,9.835654987
,,42.20736953,0,0,20,752,0.692645018,0.896454213,1.938981406,C_{18}H_{32}O,"InChI=1S/C18H32O/c1-15(2)9-6-10-16(3)11-7-12-17(4)13-8-14-18(5)19/h8,13-16H,6-7,9-12H2,1-5H3/b14-8+,17-13+",LGSXJEDIGQMTRC-BYYJQVKUSA-N,"6,10,14-trimethyl-3,5-pentadecadien-2-one",1.314654028
,,0.009837265,0,0,19,760,0.462546225,0.806405036,1.919670451,C_{10}H_{10}O_{2},"InChI=1S/C10H10O2/c1-12-10(11)8-7-9-5-3-2-4-6-9/h2-8H,1H3/b8-7+",CCRCUPLGCSFEDV-BQYQJAHWSA-N,"2-propenoic acid, 3-phenyl-, methyl ester, (E)-",3.152414721
,,0.029016636,0,0,19,598.6,0.259556631,0.82174849,2.199108305,C_{6}H_{14}S,"InChI=1S/C6H14S/c1-4-5-7-6(2)3/h6H,4-5H2,1-3H3",BDFDQOJJDDORSR-UHFFFAOYSA-N,1-(isopropylthio)propane,3.153757286
,,0.046568976,0,0,19,671,0.254638864,0.823471962,2.536642665,C_{7}H_{14}Cl_{2},"InChI=1S/C7H14Cl2/c1-2-3-4-5-7(9)6-8/h7H,2-6H2,1H3",WBCSJABQCRFUCP-UHFFFAOYSA-N,"1,2-dichloroheptane",2.779468688
,,0.063326992,0,0,19,824,0.493444938,0.785191699,1.779167439,C_{18}H_{22},"InChI=1S/C18H22/c1-5-18(4,16-10-6-14(2)7-11-16)17-12-8-15(3)9-13-17/h6-13H,5H2,1-4H3",YLYGJDUBXATBCZ-UHFFFAOYSA-N,"2,2-di-p-tolylbutane",1.896496722
,,0.066957282,0,0,19,510,0.26135884,0.81088152,3.321858168,C_{10}F_{20},"InChI=1S/C10F20/c11-1(2(12)13)3(14,15)4(16,17)5(18,19)6(20,21)7(22,23)8(24,25)9(26,27)10(28,29)30",IMVVEWPCRIJQCA-UHFFFAOYSA-N,perfluoro-1-decene,1.158869527
,,0.079456258,0,0,19,460,0.177486412,0.831937289,2.865393957,C_{5}HF_{9},"InChI=1S/C5HF9/c6-1-2(7,8)4(11,12)5(13,14)3(1,9)10/h1H",SOJZMJXWEOBDIC-UHFFFAOYSA-N,"1,1,2,2,3,3,4,4,5-nonafluorocyclopentane",3.327511008
,,0.081702719,0,0,19,540.5,0.306323968,0.815163635,2.002907601,C_{6}H_{12}O,"InChI=1S/C6H12O/c1-3-5-6-7-4-2/h4H,2-3,5-6H2,1H3",UZKWTJUDCOPSNM-UHFFFAOYSA-N,1-(ethenyloxy)butane,3.121894434
,0.000145443,0.083391703,0,1,19,537,0.405733399,0.803435392,2.409656013,C_{10}F_{20},"InChI=1S/C10F20/c11-1(3(13,14)2(12,9(25,26)27)10(28,29)30)4(15,16)6(19,20)8(23,24)7(21,22)5(1,17)18",KOIDEQKLBFUNQU-UHFFFAOYSA-N,perfluoro(2-methylpropyl)cyclohexane,1.256288845
,0.001379979,0.168386352,0,1,19,543,0.487392061,0.803481817,1.98851733,C_{10}F_{18},"InChI=1S/C10F18/c11-1-2(12,5(17,18)9(25,26)7(21,22)3(1,13)14)6(19,20)10(27,28)8(23,24)4(1,15)16/t1-,2-",UWEYRJFJVCLAGH-IJWZVTFUSA-N,trans-perfluorodecahydronaphthalene,1.330357109
,,0.175171285,0,0,19,665,0.929388659,0.913500223,0.880504678,C_{6}H_{14}S_{2},"InChI=1S/C6H14S2/c1-5-7-8-6(2,3)4/h5H2,1-4H3",CLMXSBZIYJITQU-UHFFFAOYSA-N,"2,2-dimethyl-3,4-dithiahexane",3.181259349
,,0.180770169,0,0,19,703,0.246418652,0.809067674,3.366644893,C_{18}H_{30},"InChI=1S/C18H30/c1-11(2)15-9-17(13(5)6)18(14(7)8)10-16(15)12(3)4/h9-14H,1-8H3",ROXLYQQDLJJEBE-UHFFFAOYSA-N,"1,2,4,5-tetraisopropylbenzene",1.632493459
,,0.277851339,0,0,19,792,1.334601605,0.896081623,0.713624496,C_{9}H_{7}NO_{2},"InChI=1S/C9H7NO2/c1-12-9(11)8-4-2-7(6-10)3-5-8/h2-5H,1H3",KKZMIDYKRKGJHG-UHFFFAOYSA-N,methyl p-cyanobenzoate,3.245996433
,,0.315750118,0,0,19,573.184,0.335210356,0.8303156,1.513639419,BBr_{3},InChI=1S/BBr3/c2-1(3)4,ILAHWRKJUDSMFH-UHFFFAOYSA-N,boron tribromide,4.509750236
,,0.404001254,0,0,19,357.223,0.1317727,0.82116823,3.085116055,C_{3}F_{6}O,"InChI=1S/C3F6O/c4-2(5,6)1(10)3(7,8)9",VBZWSGALLODQNC-UHFFFAOYSA-N,"1,1,1,3,3,3-hexafluoro-2-propanone",2.852011335
,,0.431483087,0,0,19,666,0.989143379,0.999998674,0.744159468,C_{6}H_{12}S,"InChI=1S/C6H12S/c1-6-2-4-7-5-3-6/h6H,2-5H2,1H3",MCSVISNPQJAWJX-UHFFFAOYSA-N,"2H-thiopyran, tetrahydro-4-methyl-",3.997667492
,,0.473904681,0,0,19,831,0.925876149,0.901568997,1.41177287,C_{7}H_{7}NO,"InChI=1S/C7H7NO/c8-7(9)6-4-2-1-3-5-6/h1-5H,(H2,8,9)",KXDAEFPNCMNJSK-UHFFFAOYSA-N,benzamide,5.409674269
,,0.525698224,0,0,19,496.36196,0.941327191,0.874003996,1.195848288,F_{8}N_{4}P_{4},"InChI=1S/F8N4P4/c1-13(2)9-14(3,4)11-16(7,8)12-15(5,6)10-13",XSODZUWUOCBUAG-UHFFFAOYSA-N,"1,3,5,7,2,4,6,8-tetrazatetraphosphocine, 2,2,4,4,6,6,8,8-octafluoride",2.130880579
,,0.52904286,0,0,19,501,0.463691603,0.814509668,1.317472839,C_{2}H_{3}ClO,InChI=1S/C2H3ClO/c1-2(3)4/h1H3,WETWJCDKMRHUPV-UHFFFAOYSA-N,acetyl chloride,4.275852995
,,0.530785559,0,0,19,542,0.914300589,0.882896979,1.405828355,C_{7}H_{4}F_{12}O,"InChI=1S/C7H4F12O/c8-2(9)5(14,15)7(18,19)4(12,13)1-20-6(16,17)3(10)11/h2-3H,1H2",ZNBGTBKGFZMWKR-UHFFFAOYSA-N,"1H,1H,5H-octafluoropentyl-1,1,2,2-tetrafluoroethylether",1.869894769
,0.000426193,0.554123785,0,1,19,528,0.725851675,0.910537584,0.966025335,C_{6}H_{12},"InChI=1S/C6H12/c1-2-6-4-3-5-6/h6H,2-5H2,1H3",NEZRFXZYPAIZAD-UHFFFAOYSA-N,ethylcyclobutane,3.725463617
,,0.582119368,0,0,19,438.99,0.77134087,0.870148667,1.350736791,C_{6}F_{12},"InChI=1S/C6F12/c7-1(2(8)4(10,11)12)3(9,5(13,14)15)6(16,17)18",SAPOZTRFWJZUFT-UHFFFAOYSA-N,perfluoro-4-methyl-2-pentene,1.972033056
,,0.760482188,0,0,19,421,0.985738962,0.975423638,0.939317869,C_{5}F_{10},"InChI=1S/C5F10/c6-1(7)2(8,9)4(12,13)5(14,15)3(1,10)11",PWMJXZJISGDARB-UHFFFAOYSA-N,perfluorocyclopentane,2.401081174
,,0.837518915,0,0,19,849,1.891548676,0.905901774,0.570722531,C_{15}H_{16}O,"InChI=1S/C15H16O/c1-15(2,12-6-4-3-5-7-12)13-8-10-14(16)11-9-13/h3-11,16H,1-2H3",QBDSZLJBMIMQRS-UHFFFAOYSA-N,4-(1-methyl-1-phenylethyl)phenol,2.392022109
,0.956227586,0.915725361,0,14,19,603,0.203400469,0.854516928,2.478447882,C_{5}H_{9}Cl,"InChI=1S/C5H9Cl/c6-5-3-1-2-4-5/h5H,1-4H2",NDTCXABJQNJPCF-UHFFFAOYSA-N,chlorocyclopentane,4.724487678
,0.013301773,0.977082935,0,1,19,652,0.670658553,0.823341345,0.996335639,C_{6}H_{4}BrF,InChI=1S/C6H4BrF/c7-5-2-1-3-6(8)4-5/h1-4H,QDFKKJYEIFBEFC-UHFFFAOYSA-N,1-bromo-3-fluorobenzene,4.160982219
,0.007941057,0.985043973,0,1,19,674.4,1.526929607,0.999988151,0.940284095,C_{8}H_{16}O_{2},"InChI=1S/C8H16O2/c1-3-5-6-7(4-2)8(9)10/h7H,3-6H2,1-2H3,(H,9,10)",OBETXYAYXDNJHR-UHFFFAOYSA-N,2-ethylhexanoic acid,2.777931145
,,0.997624813,0,0,19,740,1.229736942,0.969030561,1.18625132,C_{16}H_{35}N,"InChI=1S/C16H35N/c1-3-5-7-9-11-13-15-17-16-14-12-10-8-6-4-2/h17H,3-16H2,1-2H3",LAWOZCWGWDVVSG-UHFFFAOYSA-N,dioctylamine,1.328784479
,,1.025312152,0,0,19,474.9,0.783762017,0.988430818,0.972556757,C_{4}H_{11}N,"InChI=1S/C4H11N/c1-4-5(2)3/h4H2,1-3H3",DAZXVJBJRMWXJP-UHFFFAOYSA-N,"N,N-dimethylethanamine",3.729393828
,,1.074900478,0,0,19,665.4,0.357593408,0.826950192,2.964332612,C_{11}H_{22}O_{2},"InChI=1S/C11H22O2/c1-3-5-6-7-8-9-10-13-11(12)4-2/h3-10H2,1-2H3",CEQGYPPMTKWBIU-UHFFFAOYSA-N,octyl propanoate,1.966066842
,,1.082427016,0,0,19,511,0.418835032,0.980645691,1.108153142,C_{6}H_{10},"InChI=1S/C6H10/c1-5-6(2,3)4/h1H,2-4H3",PPWNCLVNXGCGAF-UHFFFAOYSA-N,"3,3-dimethyl-1-butyne",3.67914189
,,1.092395452,0,0,19,678,0.814772603,0.831232686,1.390861774,C_{2}H_{3}ClO_{2},"InChI=1S/C2H3ClO2/c3-1-2(4)5/h1H2,(H,4,5)",FOCAUTSVDIKZOP-UHFFFAOYSA-N,chloroethanoic acid,5.660538945
,,1.111597861,0,0,19,490,0.764653699,0.946068335,1.383983807,C_{4}H_{5}F_{3}O_{2},"InChI=1S/C4H5F3O2/c1-2-9-3(8)4(5,6)7/h2H2,1H3",STSCVKRWJPWALQ-UHFFFAOYSA-N,ethyl trifluoroacetate,3.718177477
,,1.164876802,0,0,19,625,0.543770718,0.919518741,1.707649768,C_{6}H_{10}O,"InChI=1S/C6H10O/c1-2-3-4-5-6-7/h4-6H,2-3H2,1H3/b5-4+",MBDOYVRWFFCFHM-SNAWJCMRSA-N,(E)-2-hexenal,3.78490827
,,1.248770577,0,0,19,809,0.737095005,0.904342627,1.85588978,C_{18}H_{22},"InChI=1S/C18H22/c1-4-5-16-8-12-18(13-9-16)15(3)17-10-6-14(2)7-11-17/h6-13,15H,4-5H2,1-3H3",CTGGQBHUPFOREM-UHFFFAOYSA-N,1-p-propylphenyl-1-p-tolylethane,2.28472744
,,1.433567564,0,0,19,565.8,1.661134161,0.989757495,0.494317521,C_{8}H_{14},"InChI=1S/C8H14/c1-3-5-7-8-6-4-2/h3-4H,1-2,5-8H2",XWJBRBSPAODJER-UHFFFAOYSA-N,"1,7-octadiene",2.70919724
,,1.454693973,0,0,19,589.15,0.153427384,0.780668086,4.216895559,C_{7}H_{4}F_{12}O,"InChI=1S/C7H4F12O/c8-1-3(10,11)5(14,15)7(18,19)6(16,17)4(12,13)2(9)20/h2,20H,1H2",XTXPJPILJVPUGS-UHFFFAOYSA-N,"1,2,2,3,3,4,4,5,5,6,6,7-dodecafluoro-1-heptanol",2.227091475
,,1.476165163,0,0,19,645,0.353126946,0.836426021,2.781605255,C_{9}H_{18}O_{2},"InChI=1S/C9H18O2/c1-2-3-4-5-6-7-8-11-9-10/h9H,2-8H2,1H3",AVBRYQRTMPHARE-UHFFFAOYSA-N,octyl methanoate,2.441217044
,,1.518313195,0,0,19,627,0.382213827,0.785029575,2.204786768,C_{5}H_{8}O_{4},"InChI=1S/C5H8O4/c1-4(6)8-3-9-5(2)7/h3H2,1-2H3",BPGDAMSIGCZZLK-UHFFFAOYSA-N,diacetoxymethane,3.254334967
,0.010842875,1.733570587,0,1,19,633.8,2.341914492,0.882864941,0.291271862,C_{6}H_{4}ClF,InChI=1S/C6H4ClF/c7-5-3-1-2-4-6(5)8/h1-4H,ZCJAYDKWZAWMPR-UHFFFAOYSA-N,1-chloro-2-fluorobenzene,4.316263077
0.389028247,,1.853574319,43,0,19,513.4,0.407326075,0.818551831,1.529911566,C_{6}H_{12},"InChI=1S/C6H12/c1-3-5-6-4-2/h3,5H,4,6H2,1-2H3/b5-3-",RYPKRALMXUUNKS-HYXAFXHYSA-N,(Z)-2-hexene,3.28916586
0.129296563,0.257992842,1.936472768,30,1,19,456.5,1.040234832,0.912362397,0.561700691,C_{4}H_{6},"InChI=1S/C4H6/c1-3-4-2/h4H,1H2,2H3",QNRMTGGDHLBXQZ-UHFFFAOYSA-N,"1,2-butadiene",4.74822037
,,1.937800908,0,0,19,643,1.409165169,0.794389872,0.873142195,C_{9}H_{20}O,"InChI=1S/C9H20O/c1-8(5-6-10)7-9(2,3)4/h8,10H,5-7H2,1-4H3",BODRLKRKPXBDBN-UHFFFAOYSA-N,"3,5,5-trimethyl-1-hexanol",2.789201647